LAMMPS data file via write_data, version 2 Jun 2020, timestep = 20000

16300 atoms
54 atom types
16200 bonds
2 bond types
2600 angles
2 angle types

4.2000000000000000e+02 5.9400000000000000e+02 xlo xhi
3.7600000000000000e+02 5.5000000000000000e+02 ylo yhi
2.9760000000000000e+03 3.1500000000000000e+03 zlo zhi

Masses

1 131.2
2 57.05
3 128.2
4 101.1
5 156.2
6 71.08
7 115.1
8 129.1
9 163.2
10 99.07
11 113.2
12 128.1
13 186.2
14 147.2
15 87.08
16 137.1
17 114.1
18 97.12
19 103.1
20 113.2
21 131.2
22 57.05
23 128.2
24 101.1
25 156.2
26 71.08
27 115.1
28 129.1
29 163.2
30 99.07
31 113.2
32 128.1
33 186.2
34 147.2
35 87.08
36 137.1
37 114.1
38 97.12
39 103.1
40 113.2
41 329.2
42 305.2
43 345.2
44 306.2
45 87.08
46 107.44
47 87.08
48 107.48
49 57.05
50 86.92
51 86.92
52 86.92
53 107.44
54 107.48

Bond Coeffs # harmonic

1 2.39 3.81
2 2.39 5

Angle Coeffs # harmonic

1 0.0001 180
2 5 180

Atoms # full

675 5 12 0.0000000000000000e+00 5.0098338641087651e+02 3.9971757778579473e+02 3.0000715647305601e+03 -1 0 0
16131 99 12 0.0000000000000000e+00 4.9959497903980417e+02 3.8175392134907241e+02 3.0033657633736161e+03 0 0 0
4655 29 9 0.0000000000000000e+00 4.2458144855562972e+02 4.2392335565891278e+02 2.9848914475758261e+03 0 0 0
12072 75 6 0.0000000000000000e+00 4.4546897553353148e+02 3.9214157492065658e+02 2.9789272009976303e+03 0 0 0
13985 86 9 0.0000000000000000e+00 4.8253340751942284e+02 3.8233753786143620e+02 3.0010178184070492e+03 0 0 0
3233 20 9 0.0000000000000000e+00 4.8892606934562974e+02 4.2640805460322986e+02 3.0177749557223178e+03 0 0 0
10946 68 9 0.0000000000000000e+00 4.3333458966881659e+02 3.9328171869449108e+02 3.0174482280808174e+03 1 0 0
11018 68 9 0.0000000000000000e+00 4.3064949215139069e+02 4.2745181218953604e+02 2.9860644582050832e+03 1 0 0
13931 86 2 0.0000000000000000e+00 4.6452202446402777e+02 4.1329438541833849e+02 3.0028915927229550e+03 0 0 0
928 6 9 0.0000000000000000e+00 4.6290797356561058e+02 3.9019652799495549e+02 2.9980898967774342e+03 0 0 0
8149 50 17 0.0000000000000000e+00 4.2568317746257139e+02 3.9084078284000827e+02 2.9850817768153906e+03 0 0 1
8138 50 18 0.0000000000000000e+00 4.2469654246609929e+02 3.8683394901500486e+02 2.9944398312672320e+03 0 0 1
11026 68 6 0.0000000000000000e+00 4.2622277364565321e+02 4.1520736996360046e+02 2.9874887164600941e+03 1 0 0
951 6 9 0.0000000000000000e+00 4.7570026734604102e+02 3.9818383544105723e+02 2.9798367171406990e+03 0 0 0
11063 68 15 0.0000000000000000e+00 4.3498918421975753e+02 4.0136555405216706e+02 2.9987483089249772e+03 1 0 0
905 6 15 0.0000000000000000e+00 4.6395515624298395e+02 3.8589235231884425e+02 2.9808727338412523e+03 0 0 0
15194 94 12 0.0000000000000000e+00 5.0435802009713353e+02 3.9079311730950980e+02 3.0039253081726215e+03 0 1 0
3787 24 9 0.0000000000000000e+00 4.3744363412099341e+02 4.2472630753285989e+02 3.0154054029307899e+03 0 0 0
672 5 12 0.0000000000000000e+00 4.9503804707591752e+02 3.9213439548470598e+02 2.9993455214623445e+03 -1 0 0
12078 75 6 0.0000000000000000e+00 4.4512112129481517e+02 3.9343993127715220e+02 2.9914882259771771e+03 0 0 0
4146 26 4 0.0000000000000000e+00 4.5364818541370852e+02 4.0659951166483802e+02 2.9771062777179518e+03 0 0 0
11022 68 2 0.0000000000000000e+00 4.3842832679046268e+02 4.2031659753495762e+02 2.9927226426561651e+03 1 0 0
10928 68 4 0.0000000000000000e+00 4.4490748275017262e+02 3.8499080530525174e+02 3.0118650296603278e+03 1 0 0
3179 20 2 0.0000000000000000e+00 4.8426265735260074e+02 4.1104513270637176e+02 2.9775654870044045e+03 0 0 0
6185 38 2 0.0000000000000000e+00 5.0463217629309105e+02 4.1300994989559962e+02 3.0013187165446234e+03 -1 0 0
10943 68 2 0.0000000000000000e+00 4.3677933130356757e+02 3.9571345006246395e+02 3.0119047064645715e+03 1 0 0
10937 68 6 0.0000000000000000e+00 4.4789754872762762e+02 3.9107521745657101e+02 2.9990169634798845e+03 1 0 0
4659 29 15 0.0000000000000000e+00 4.3808387461589763e+02 4.2009202276787738e+02 2.9838153178288489e+03 0 0 0
15198 94 45 0.0000000000000000e+00 4.9949258576220109e+02 3.9177890013350446e+02 2.9928840671541407e+03 0 1 0
16136 99 17 0.0000000000000000e+00 4.8964632980680909e+02 3.7655132863392492e+02 3.0032105015627326e+03 0 0 0
13932 86 15 0.0000000000000000e+00 4.6313103301256365e+02 4.1031678786861153e+02 3.0032216193496333e+03 0 0 0
4658 29 12 0.0000000000000000e+00 4.3463748864294269e+02 4.2057637032132584e+02 2.9824499626824672e+03 0 0 0
8131 50 2 0.0000000000000000e+00 4.2105762097774203e+02 3.8594858675211043e+02 2.9848922126319458e+03 0 0 1
13930 86 9 0.0000000000000000e+00 4.6567484541987238e+02 4.1634267258119348e+02 3.0036985661868016e+03 0 0 0
916 6 2 0.0000000000000000e+00 4.4539029147822902e+02 3.8682989828026808e+02 2.9911673270081910e+03 0 0 0
10940 68 4 0.0000000000000000e+00 4.4421895549156392e+02 3.9529894370021384e+02 3.0057331345606976e+03 1 0 0
10991 68 15 0.0000000000000000e+00 4.2054718829434921e+02 4.0814087080832007e+02 3.0108910934306969e+03 1 0 0
15187 94 12 0.0000000000000000e+00 4.8758096436374979e+02 3.9179941079134659e+02 3.0100850017311618e+03 0 1 0
13905 86 9 0.0000000000000000e+00 4.6822137328516214e+02 3.9566969408087914e+02 3.0079267019477302e+03 0 0 0
8132 50 12 0.0000000000000000e+00 4.2107669608982917e+02 3.8822839184734983e+02 2.9879901800864900e+03 0 0 1
674 5 2 0.0000000000000000e+00 4.9738428196917266e+02 3.9862415564447758e+02 2.9988792786657291e+03 -1 0 0
13980 86 18 0.0000000000000000e+00 4.8180230099572674e+02 3.7860759560969279e+02 2.9902911606923985e+03 0 0 0
3789 24 2 0.0000000000000000e+00 4.3876715235444641e+02 4.2065257518061600e+02 3.0119053400144030e+03 0 0 0
8142 50 9 0.0000000000000000e+00 4.3444446033773824e+02 3.9076123851734002e+02 2.9970613199463010e+03 0 0 1
13988 86 12 0.0000000000000000e+00 4.7681186883630414e+02 3.7828275222791336e+02 2.9989165532968700e+03 0 0 0
12082 75 12 0.0000000000000000e+00 4.3472324827059191e+02 3.9551391864307868e+02 2.9884476927561623e+03 0 0 0
923 6 15 0.0000000000000000e+00 4.6047306184781309e+02 3.9018904133827442e+02 2.9900333544966466e+03 0 0 0
15200 94 9 0.0000000000000000e+00 5.0168464420985526e+02 3.8873567189203931e+02 2.9886124820238574e+03 0 1 0
4670 29 18 0.0000000000000000e+00 4.5945712047745678e+02 4.2102396329279389e+02 2.9861877213853227e+03 0 0 0
2467 16 2 0.0000000000000000e+00 4.6922395186530719e+02 4.3090601710814212e+02 2.9854601068095162e+03 0 0 0
3202 20 6 0.0000000000000000e+00 4.7722416439979082e+02 4.1309804971794000e+02 2.9969088857766378e+03 0 0 0
13984 86 15 0.0000000000000000e+00 4.8256325911796011e+02 3.8579725609947775e+02 3.0003246075036004e+03 0 0 0
4143 26 4 0.0000000000000000e+00 4.5584606254316731e+02 4.0061437571971851e+02 2.9824033476250002e+03 0 0 0
15112 93 15 0.0000000000000000e+00 4.7975725169666401e+02 4.3000322558507105e+02 3.0098577917206476e+03 0 0 0
930 6 15 0.0000000000000000e+00 4.6796466315250268e+02 3.8705769735266239e+02 2.9962600463274293e+03 0 0 0
6181 38 17 0.0000000000000000e+00 4.9734731030985580e+02 4.1448341846209757e+02 3.0079845085906973e+03 -1 0 0
919 6 18 0.0000000000000000e+00 4.5390588318683814e+02 3.9162624677080782e+02 2.9866156054380053e+03 0 0 0
2471 16 15 0.0000000000000000e+00 4.6041066062944884e+02 4.3115626978208712e+02 2.9817326457612767e+03 0 0 0
922 6 15 0.0000000000000000e+00 4.6047453342384688e+02 3.9336718683676332e+02 2.9899669759002472e+03 0 0 0
10961 68 2 0.0000000000000000e+00 4.2835414660767253e+02 4.0532128006825212e+02 3.0116879009865165e+03 1 0 0
6171 38 12 0.0000000000000000e+00 5.0058162509675134e+02 4.2373662852723584e+02 2.9962609644037934e+03 -1 0 0
3183 20 15 0.0000000000000000e+00 4.9079240978732054e+02 4.1189526060905217e+02 2.9761601039618349e+03 0 0 0
4592 29 12 0.0000000000000000e+00 4.4356602925052653e+02 4.2523028640852630e+02 2.9888298930872561e+03 0 0 0
10933 68 12 0.0000000000000000e+00 4.4448913477400299e+02 3.8531260090360485e+02 2.9986484426143202e+03 1 0 0
4148 26 12 0.0000000000000000e+00 4.5424622378696102e+02 4.0856964192360573e+02 2.9840934558521394e+03 0 0 0
945 6 9 0.0000000000000000e+00 4.7405230682994312e+02 3.8610945169804648e+02 2.9828373008999079e+03 0 0 0
11783 73 4 0.0000000000000000e+00 4.4327669504421272e+02 4.1402706921254804e+02 3.0034915213793406e+03 0 0 0
3193 20 15 0.0000000000000000e+00 5.0129565032277230e+02 4.2121431423684623e+02 2.9898443170847559e+03 0 0 0
3180 20 15 0.0000000000000000e+00 4.8213434061154203e+02 4.1431524651872178e+02 2.9767702062704807e+03 0 0 0
15111 93 15 0.0000000000000000e+00 4.8320561349289375e+02 4.3149524889948532e+02 3.0110852549883480e+03 0 0 0
927 6 15 0.0000000000000000e+00 4.5977043186177480e+02 3.8759164447593207e+02 2.9964640324308471e+03 0 0 0
3249 20 18 0.0000000000000000e+00 4.9043303150545432e+02 3.9420360426063331e+02 3.0143241172665489e+03 0 0 0
10936 68 2 0.0000000000000000e+00 4.4373981320967863e+02 3.9247244683291376e+02 2.9966984261222910e+03 1 0 0
10990 68 12 0.0000000000000000e+00 4.2277555271778073e+02 4.1054834196762749e+02 3.0092743760573699e+03 1 0 0
11016 68 15 0.0000000000000000e+00 4.2788160023016297e+02 4.3230162501038518e+02 2.9891809568301255e+03 1 0 0
11815 73 2 0.0000000000000000e+00 4.7026834470008481e+02 4.2675743345244695e+02 2.9978561950471994e+03 0 0 0
3170 20 12 0.0000000000000000e+00 5.0016305170261984e+02 4.0843227740953557e+02 2.9905431480322004e+03 0 0 0
13972 86 15 0.0000000000000000e+00 4.8670877410544722e+02 3.8804645915868491e+02 2.9780519574168238e+03 0 0 0
15182 94 12 0.0000000000000000e+00 4.9347927934898786e+02 3.8017562134680730e+02 3.0091176047534227e+03 0 1 0
11017 68 15 0.0000000000000000e+00 4.2715298839302329e+02 4.2871999839637022e+02 2.9879460595465725e+03 1 0 0
4656 29 2 0.0000000000000000e+00 4.2753195487734871e+02 4.2263819352530135e+02 2.9828472430573415e+03 0 0 0
15188 94 15 0.0000000000000000e+00 4.9136132787327188e+02 3.9201311826429168e+02 3.0099168139863705e+03 0 1 0
13173 81 12 0.0000000000000000e+00 4.2276621863553856e+02 3.8639381952244997e+02 3.0170260237135694e+03 0 0 0
15181 94 2 0.0000000000000000e+00 4.9653425143830168e+02 3.7795421269798049e+02 3.0099536701812481e+03 0 1 0
13948 86 12 0.0000000000000000e+00 4.6892882282066506e+02 4.0189868544106866e+02 2.9862475476112900e+03 0 0 0
15191 94 18 0.0000000000000000e+00 4.9987077813744975e+02 3.8994853478414251e+02 3.0090089527075006e+03 0 1 0
11810 73 2 0.0000000000000000e+00 4.5735322948287944e+02 4.3001581376237181e+02 3.0035121672979612e+03 0 0 0
11776 73 2 0.0000000000000000e+00 4.3161952012410916e+02 4.2008933985341559e+02 3.0147066732335124e+03 0 0 0
918 6 12 0.0000000000000000e+00 4.5191226234786757e+02 3.9024892417616013e+02 2.9901080629320786e+03 0 0 0
14324 88 9 0.0000000000000000e+00 5.0205350146686737e+02 4.2079448922729284e+02 3.0099737723513708e+03 0 0 0
4154 26 2 0.0000000000000000e+00 4.5987683772272345e+02 4.1097854388273589e+02 2.9800977144984849e+03 0 0 0
15195 94 12 0.0000000000000000e+00 5.0225966704371621e+02 3.9015148604061540e+02 3.0007182282284166e+03 0 1 0
11811 73 9 0.0000000000000000e+00 4.6091636240982251e+02 4.3108222308297650e+02 3.0025877740756118e+03 0 0 0
10988 68 2 0.0000000000000000e+00 4.2206607522784361e+02 4.0819585807929860e+02 3.0014334645500012e+03 1 0 0
4683 29 15 0.0000000000000000e+00 4.7529650697432373e+02 4.2667612860981944e+02 2.9788070281016662e+03 0 0 0
13963 86 15 0.0000000000000000e+00 4.9383034761702140e+02 3.9826901688460515e+02 2.9797069352626058e+03 0 0 0
8130 50 9 0.0000000000000000e+00 4.2034697737080029e+02 3.8485930652191360e+02 2.9812839767547493e+03 0 0 1
15101 93 6 0.0000000000000000e+00 4.9347967419148256e+02 4.2866854805649223e+02 2.9955546820243658e+03 0 0 0
2470 16 9 0.0000000000000000e+00 4.6226798133123651e+02 4.3283938050371535e+02 2.9848260510600730e+03 0 0 0
10959 68 9 0.0000000000000000e+00 4.3403962574622500e+02 4.0664691107041358e+02 3.0143536843454658e+03 1 0 0
6168 38 2 0.0000000000000000e+00 5.0506766216027506e+02 4.2103570795487985e+02 2.9977909822160414e+03 -1 0 0
13982 86 15 0.0000000000000000e+00 4.8313416012591705e+02 3.8536171797801751e+02 2.9933461685958096e+03 0 0 0
12077 75 2 0.0000000000000000e+00 4.4547728509669923e+02 3.9756924888971366e+02 2.9923805042827730e+03 0 0 0
3786 24 15 0.0000000000000000e+00 4.3341345920041834e+02 4.2517956741334064e+02 3.0139292654072819e+03 0 0 0
2473 16 12 0.0000000000000000e+00 4.6357313688509396e+02 4.3349134376109356e+02 2.9777021277293002e+03 0 0 0
15120 93 12 0.0000000000000000e+00 4.6231108978297618e+02 4.2844975803233632e+02 3.0077505183605381e+03 0 0 0
13194 81 2 0.0000000000000000e+00 4.3820550906325457e+02 3.7819129926702431e+02 2.9919465171968636e+03 0 0 0
15109 93 9 0.0000000000000000e+00 4.8646554197530338e+02 4.3305118884137397e+02 3.0045429037244771e+03 0 0 0
4152 26 15 0.0000000000000000e+00 4.5625219124074636e+02 4.1328505142049653e+02 2.9832736282237511e+03 0 0 0
936 6 15 0.0000000000000000e+00 4.6811762278629209e+02 3.8484390318868776e+02 2.9893894208415136e+03 0 0 0
15202 94 12 0.0000000000000000e+00 4.9637525221110172e+02 3.8623614187189605e+02 2.9857794841477416e+03 0 1 0
8140 50 12 0.0000000000000000e+00 4.2824262060343830e+02 3.9264705042633119e+02 2.9942589050030492e+03 0 0 1
11065 68 2 0.0000000000000000e+00 4.3749021413078151e+02 3.9819206208125672e+02 3.0026357597630649e+03 1 0 0
11789 73 15 0.0000000000000000e+00 4.6148103630094442e+02 4.2010829464048288e+02 3.0008623178065759e+03 0 0 0
13892 86 15 0.0000000000000000e+00 4.9006110682058414e+02 3.9658054818585765e+02 3.0055178851845212e+03 0 0 0
15090 93 12 0.0000000000000000e+00 4.9615730492449791e+02 4.3399728185641226e+02 2.9833055369863087e+03 0 0 0
10935 68 9 0.0000000000000000e+00 4.4123422876115603e+02 3.9094331682740017e+02 2.9990433736330397e+03 1 0 0
5057 32 17 0.0000000000000000e+00 4.9862490729471273e+02 4.3364206113315811e+02 3.0000140835365414e+03 0 0 0
3808 24 2 0.0000000000000000e+00 4.6118470439384220e+02 4.2055612461849125e+02 3.0190517429757015e+03 0 0 0
4653 29 15 0.0000000000000000e+00 4.2096809063808342e+02 4.2210952850360229e+02 2.9898287702104249e+03 0 0 0
11027 68 18 0.0000000000000000e+00 4.2471312013120672e+02 4.1734847584136952e+02 2.9845014036345933e+03 1 0 0
12074 75 12 0.0000000000000000e+00 4.4647093444045737e+02 3.9434229239889078e+02 2.9836137952925274e+03 0 0 0
4598 29 2 0.0000000000000000e+00 4.3858047074286270e+02 4.3112812683717829e+02 3.0023652210901932e+03 0 0 0
15129 93 12 0.0000000000000000e+00 4.6043058178034562e+02 4.1377904208681110e+02 3.0135901346916226e+03 0 0 0
2460 16 2 0.0000000000000000e+00 4.5327326178774820e+02 4.3195761043674207e+02 2.9895310322942037e+03 0 0 0
15088 93 2 0.0000000000000000e+00 4.9848708096399884e+02 4.3073037626938884e+02 2.9785167761530975e+03 0 0 0
10313 64 15 0.0000000000000000e+00 4.2777144819356874e+02 4.2908920309660419e+02 2.9763076782611547e+03 0 0 1
910 6 15 0.0000000000000000e+00 4.5114326928075417e+02 3.8239803352051933e+02 2.9884019429663490e+03 0 0 0
11813 73 15 0.0000000000000000e+00 4.6396105193005235e+02 4.2742400682833608e+02 2.9975603258262513e+03 0 0 0
4671 29 15 0.0000000000000000e+00 4.6125839884797216e+02 4.1936278882325968e+02 2.9835697982590445e+03 0 0 0
10930 68 12 0.0000000000000000e+00 4.4453379351835702e+02 3.8282208011904856e+02 3.0043330396612464e+03 1 0 0
3209 20 15 0.0000000000000000e+00 4.8919846417402312e+02 4.2657218382692668e+02 3.0092048772101166e+03 0 0 0
11782 73 7 -1.0000000000000000e+00 4.4101004478466052e+02 4.1366925251671108e+02 3.0063349421694038e+03 0 0 0
13942 86 15 0.0000000000000000e+00 4.5601626530435004e+02 4.0809326723931946e+02 2.9899812574842572e+03 0 0 0
8141 50 2 0.0000000000000000e+00 4.3165682235391972e+02 3.9260662161010788e+02 2.9964457944899009e+03 0 0 1
913 6 18 0.0000000000000000e+00 4.4428438893951773e+02 3.8044877087518086e+02 2.9891651320593196e+03 0 0 0
12063 75 1 0.0000000000000000e+00 4.3032860841774738e+02 3.7882559723004289e+02 2.9841668138771852e+03 0 0 0
4682 29 12 0.0000000000000000e+00 4.7783837284857600e+02 4.2938401833520567e+02 2.9779294985332590e+03 0 0 0
3201 20 18 0.0000000000000000e+00 4.8030196483779213e+02 4.1327580558202317e+02 2.9950375171943147e+03 0 0 0
15128 93 12 0.0000000000000000e+00 4.6121017310539338e+02 4.1311037905394761e+02 3.0096049316160361e+03 0 0 0
11048 68 15 0.0000000000000000e+00 4.2442511773447984e+02 3.9894206351656857e+02 2.9763608325128048e+03 1 0 0
6169 38 2 0.0000000000000000e+00 5.0450823765710055e+02 4.2453099578917238e+02 3.0001114399905637e+03 -1 0 0
13937 86 2 0.0000000000000000e+00 4.5054702291143383e+02 4.0657136003367913e+02 2.9951416111160952e+03 0 0 0
11775 73 45 0.0000000000000000e+00 4.3077069147635075e+02 4.1695248241600814e+02 3.0165969546151991e+03 0 0 0
3173 20 2 0.0000000000000000e+00 4.9182699583523453e+02 4.0725371676998157e+02 2.9899393567130974e+03 0 0 0
13186 81 12 0.0000000000000000e+00 4.3658114457110923e+02 3.8644737852631215e+02 3.0027827404576583e+03 0 0 0
671 5 4 0.0000000000000000e+00 4.9638327472800160e+02 3.8834016209814666e+02 2.9987795372244013e+03 -1 0 0
15205 94 7 -1.0000000000000000e+00 4.9136004740235319e+02 3.7748948026328111e+02 2.9852388836316177e+03 0 1 0
13959 86 18 0.0000000000000000e+00 4.8230886954192675e+02 4.0079137457046625e+02 2.9844893147725402e+03 0 0 0
3162 20 2 0.0000000000000000e+00 5.0411208238347456e+02 4.0137511355332288e+02 2.9783649775264380e+03 0 0 0
6180 38 9 0.0000000000000000e+00 4.9468526424872863e+02 4.1216026276798436e+02 3.0082673039536767e+03 -1 0 0
3207 20 15 0.0000000000000000e+00 4.8698722761490836e+02 4.2209781817450795e+02 3.0042425910178049e+03 0 0 0
13986 86 15 0.0000000000000000e+00 4.7906866036074626e+02 3.8159667246307475e+02 3.0027562949484072e+03 0 0 0
6177 38 12 0.0000000000000000e+00 4.9391276148552987e+02 4.0715746080674290e+02 2.9997884372197159e+03 -1 0 0
13929 86 2 0.0000000000000000e+00 4.6736941602247646e+02 4.1957766747993844e+02 3.0020347609459527e+03 0 0 0
11064 68 9 0.0000000000000000e+00 4.3870313476907052e+02 3.9900831332103098e+02 2.9987691576289540e+03 1 0 0
13987 86 12 0.0000000000000000e+00 4.7612679657384206e+02 3.7871848280705615e+02 3.0022706811708167e+03 0 0 0
13193 81 12 0.0000000000000000e+00 4.3834312559355686e+02 3.7785049047400048e+02 2.9955740162222569e+03 0 0 0
3199 20 12 0.0000000000000000e+00 4.8714424691983527e+02 4.1383601966663292e+02 2.9939697645325400e+03 0 0 0
6174 38 9 0.0000000000000000e+00 4.9634230300871292e+02 4.1566783053790061e+02 2.9974993863289455e+03 -1 0 0
915 6 9 0.0000000000000000e+00 4.4206158363734806e+02 3.8568401674501030e+02 2.9912517864724214e+03 0 0 0
13946 86 9 0.0000000000000000e+00 4.6236589444715730e+02 3.9943782074264050e+02 2.9868410360981975e+03 0 0 0
13974 86 15 0.0000000000000000e+00 4.8379618886252263e+02 3.9038968194943368e+02 2.9829349307947646e+03 0 0 0
4155 26 49 0.0000000000000000e+00 4.5981723643446571e+02 4.1437235076339516e+02 2.9787179027864850e+03 0 0 0
3247 20 17 0.0000000000000000e+00 4.8666417642004228e+02 3.9330238332955059e+02 3.0185773053959265e+03 0 0 0
193 2 15 0.0000000000000000e+00 4.4986570858147786e+02 3.7630250498785273e+02 2.9782416541080984e+03 0 0 0
13098 81 9 0.0000000000000000e+00 4.3776952613055460e+02 3.8604667997614877e+02 3.0157080558602393e+03 0 0 0
13943 86 12 0.0000000000000000e+00 4.5737705732563046e+02 4.0423101016807709e+02 2.9903406509903689e+03 0 0 0
15178 94 4 0.0000000000000000e+00 5.0005469808996384e+02 3.7740005480609904e+02 3.0168718948665505e+03 0 1 0
4590 29 15 0.0000000000000000e+00 4.4727098422928481e+02 4.2906152369751982e+02 2.9839629588962775e+03 0 0 0
10939 68 18 0.0000000000000000e+00 4.4766001406886500e+02 3.9461608792593563e+02 3.0044566402314776e+03 1 0 0
911 6 15 0.0000000000000000e+00 4.4959284861401636e+02 3.7970496049289039e+02 2.9918314491356496e+03 0 0 0
10931 68 6 0.0000000000000000e+00 4.4152092648998894e+02 3.8204311644821348e+02 3.0026814772972375e+03 1 0 0
11074 68 12 0.0000000000000000e+00 4.3180552486878065e+02 4.0791050519613219e+02 2.9983750132294163e+03 1 0 0
3174 20 15 0.0000000000000000e+00 4.9047233565579546e+02 4.0546127210414369e+02 2.9868234203906245e+03 0 0 0
13925 86 15 0.0000000000000000e+00 4.7320099320992085e+02 4.1627648366140801e+02 2.9990914886449314e+03 0 0 0
15108 93 15 0.0000000000000000e+00 4.8877196951899930e+02 4.3356252327768652e+02 3.0025618360749227e+03 0 0 0
15130 93 18 0.0000000000000000e+00 4.5816316889445540e+02 4.1290140631356860e+02 3.0155151997534817e+03 0 0 0
11814 73 4 0.0000000000000000e+00 4.6723900991043246e+02 4.2648455143505805e+02 2.9999847326194626e+03 0 0 0
11028 68 15 0.0000000000000000e+00 4.2425194501525056e+02 4.1729722730606693e+02 2.9805633619228011e+03 1 0 0
13926 86 4 0.0000000000000000e+00 4.7085530685685177e+02 4.1691346699104344e+02 2.9960099846731032e+03 0 0 0
3191 20 12 0.0000000000000000e+00 5.0576872394379694e+02 4.1626707448488980e+02 2.9876912804695344e+03 0 0 0
12076 75 9 0.0000000000000000e+00 4.4866909590480412e+02 3.9824951201639158e+02 2.9897897335994462e+03 0 0 0
12075 75 15 0.0000000000000000e+00 4.4691818733892927e+02 3.9690248288230521e+02 2.9866252099445269e+03 0 0 0
14323 88 15 0.0000000000000000e+00 5.0124760024388769e+02 4.2447109469087553e+02 3.0103205660609769e+03 0 0 0
3211 20 2 0.0000000000000000e+00 4.9072880737688172e+02 4.3247492937697552e+02 3.0122670896855498e+03 0 0 0
11800 73 4 0.0000000000000000e+00 4.4900858259051489e+02 4.2380436215593619e+02 2.9966818161782044e+03 0 0 0
11011 68 15 0.0000000000000000e+00 4.2081865181708389e+02 4.2200110638342244e+02 2.9988200809749287e+03 1 0 0
11793 73 47 0.0000000000000000e+00 4.6258309912515034e+02 4.1671114282320883e+02 2.9902692928310785e+03 0 0 0
11809 73 12 0.0000000000000000e+00 4.5577215284950819e+02 4.2823035463041231e+02 3.0061454950519501e+03 0 0 0
4672 29 15 0.0000000000000000e+00 4.6343477147211547e+02 4.1990185225005240e+02 2.9798171205325648e+03 0 0 0
13889 86 2 0.0000000000000000e+00 4.9906223635878331e+02 3.9918759487634065e+02 3.0063069156077240e+03 0 0 0
3235 20 2 0.0000000000000000e+00 4.9340386875059369e+02 4.2037213549777840e+02 3.0186995767256403e+03 0 0 0
3205 20 15 0.0000000000000000e+00 4.8250609538103402e+02 4.1962161080143665e+02 3.0023719811571063e+03 0 0 0
8139 50 18 0.0000000000000000e+00 4.2658078095214967e+02 3.8973529059836261e+02 2.9964028176706101e+03 0 0 1
11024 68 12 0.0000000000000000e+00 4.3294800405716541e+02 4.1632952719636199e+02 2.9889551790071764e+03 1 0 0
929 6 2 0.0000000000000000e+00 4.6689519558227732e+02 3.9028279273104425e+02 2.9968768054953662e+03 0 0 0
2472 16 12 0.0000000000000000e+00 4.6337473388417845e+02 4.3002269059809396e+02 2.9796407116662308e+03 0 0 0
679 5 12 0.0000000000000000e+00 5.0123726071392002e+02 3.9905888106870219e+02 2.9908164524457106e+03 -1 0 0
943 6 2 0.0000000000000000e+00 4.7330251276623125e+02 3.9270914859125787e+02 2.9805947174621042e+03 0 0 0
3194 20 9 0.0000000000000000e+00 4.9799267749114870e+02 4.1980881439959722e+02 2.9887678490706958e+03 0 0 0
12083 75 18 0.0000000000000000e+00 4.3818898951305215e+02 3.9577667661913870e+02 2.9856947193117512e+03 0 0 0
15119 93 2 0.0000000000000000e+00 4.6604983332977315e+02 4.2973517381830266e+02 3.0068842613711740e+03 0 0 0
3807 24 9 0.0000000000000000e+00 4.5854263544563963e+02 4.2272756346686322e+02 3.0179812951228555e+03 0 0 0
14787 91 15 0.0000000000000000e+00 5.0572015844030261e+02 4.2787521155502810e+02 2.9904468760079972e+03 0 0 0
3251 20 2 0.0000000000000000e+00 4.9678722253997398e+02 3.9613459076048997e+02 3.0161841528710988e+03 0 0 0
12084 75 2 0.0000000000000000e+00 4.4162807461356812e+02 3.9572409037366998e+02 2.9844840120441481e+03 0 0 0
937 6 9 0.0000000000000000e+00 4.6784164476631850e+02 3.8553051863409064e+02 2.9852361441197395e+03 0 0 0
10932 68 4 0.0000000000000000e+00 4.4298727751038786e+02 3.8199231024164112e+02 2.9990728367109368e+03 1 0 0
669 5 9 0.0000000000000000e+00 5.0282885399102810e+02 3.8394679794079951e+02 2.9973262411528026e+03 -1 0 0
11791 73 9 0.0000000000000000e+00 4.6114400113078131e+02 4.1435421339865144e+02 2.9972956821500206e+03 0 0 0
13983 86 2 0.0000000000000000e+00 4.8493295703585625e+02 3.8348588320192994e+02 2.9964213978528028e+03 0 0 0
6176 38 12 0.0000000000000000e+00 4.9720424413818023e+02 4.0842550564176400e+02 2.9997216549164941e+03 -1 0 0
677 5 9 0.0000000000000000e+00 5.0027835780342991e+02 4.0383603485870464e+02 2.9956874267471953e+03 -1 0 0
11069 68 15 0.0000000000000000e+00 4.4312172848909449e+02 4.0574630549454747e+02 3.0086659782611537e+03 1 0 0
11790 73 15 0.0000000000000000e+00 4.6270131633759337e+02 4.1694164546078315e+02 2.9992914838801498e+03 0 0 0
15197 94 9 0.0000000000000000e+00 5.0177825278524955e+02 3.9321928793134464e+02 2.9948838200609707e+03 0 1 0
13185 81 12 0.0000000000000000e+00 4.3496023650029395e+02 3.9012307589252043e+02 3.0031771487803535e+03 0 0 0
10941 68 12 0.0000000000000000e+00 4.4050372476284622e+02 3.9314439046918312e+02 3.0076646402663364e+03 1 0 0
682 5 15 0.0000000000000000e+00 5.0675641924652001e+02 3.9401020351141921e+02 2.9915429157762269e+03 -1 0 0
11785 73 2 0.0000000000000000e+00 4.4976354729862260e+02 4.1407919626583794e+02 3.0013566791969342e+03 0 0 0
15183 94 2 0.0000000000000000e+00 4.9100200739799004e+02 3.8130684883085240e+02 3.0070997922428160e+03 0 1 0
8137 50 17 0.0000000000000000e+00 4.2099869467794650e+02 3.8597430437363130e+02 2.9958279249021853e+03 0 0 1
8147 50 12 0.0000000000000000e+00 4.3326427316475457e+02 3.8686910055553227e+02 2.9841415972881150e+03 0 0 1
14325 88 2 0.0000000000000000e+00 5.0492011880396734e+02 4.2184320830127643e+02 3.0075989607475617e+03 0 0 0
11067 68 12 0.0000000000000000e+00 4.3996066048773969e+02 4.0105690256467244e+02 3.0086930570238337e+03 1 0 0
11019 68 18 0.0000000000000000e+00 4.3210211336073371e+02 4.2659561375408100e+02 2.9896507640733066e+03 1 0 0
12071 75 12 0.0000000000000000e+00 4.4241496913100252e+02 3.9056996675514358e+02 2.9766511503196280e+03 0 0 0
3803 24 15 0.0000000000000000e+00 4.5627274944197319e+02 4.3379165357499886e+02 3.0121098341764077e+03 0 0 0
934 6 15 0.0000000000000000e+00 4.7080387245645551e+02 3.8230559106077959e+02 2.9927007098817303e+03 0 0 0
13179 81 12 0.0000000000000000e+00 4.2574156379088731e+02 3.9277867251781913e+02 3.0105877057268654e+03 0 0 0
3176 20 2 0.0000000000000000e+00 4.8679142212971715e+02 4.1010692144006964e+02 2.9814755443315576e+03 0 0 0
4151 26 2 0.0000000000000000e+00 4.5372886757175064e+02 4.1427928208762842e+02 2.9855882820632933e+03 0 0 0
15196 94 15 0.0000000000000000e+00 5.0220039960506392e+02 3.9010294772655067e+02 2.9970724449829577e+03 0 1 0
4657 29 12 0.0000000000000000e+00 4.3108635695135553e+02 4.2226733195977323e+02 2.9831495106243847e+03 0 0 0
13962 86 15 0.0000000000000000e+00 4.8959199385185042e+02 3.9705572401867710e+02 2.9795191169300469e+03 0 0 0
14321 88 12 0.0000000000000000e+00 5.0261494705332711e+02 4.2912535368505127e+02 3.0153847817511382e+03 0 0 0
16126 99 18 0.0000000000000000e+00 5.0239146889280619e+02 3.8865140865698049e+02 3.0150623803837962e+03 0 0 0
941 6 12 0.0000000000000000e+00 4.6588557805965530e+02 3.9470898337080399e+02 2.9832592287830016e+03 0 0 0
3236 20 12 0.0000000000000000e+00 4.9613274404983650e+02 4.1837657119348825e+02 3.0175472593999798e+03 0 0 0
13197 81 12 0.0000000000000000e+00 4.3915825623614165e+02 3.7942553007492887e+02 2.9854113207609012e+03 0 0 0
13189 81 9 0.0000000000000000e+00 4.3424858928260824e+02 3.7787848860545608e+02 3.0048683840411418e+03 0 0 0
4667 29 12 0.0000000000000000e+00 4.5528895147890711e+02 4.2412819637623653e+02 2.9811736656411267e+03 0 0 0
4144 26 12 0.0000000000000000e+00 4.5493748896015455e+02 4.0055120108070906e+02 2.9785782113755376e+03 0 0 0
14326 88 12 0.0000000000000000e+00 5.0627961017991311e+02 4.2416586645756388e+02 3.0057584083675483e+03 0 0 0
13960 86 6 0.0000000000000000e+00 4.8613515997305268e+02 3.9995122046416839e+02 2.9845843212602740e+03 0 0 0
3197 20 9 0.0000000000000000e+00 4.9028309006097157e+02 4.2004426027559902e+02 2.9912079404736883e+03 0 0 0
13965 86 15 0.0000000000000000e+00 4.9876897903940755e+02 3.9875481592892788e+02 2.9789876967918217e+03 0 0 0
3809 24 12 0.0000000000000000e+00 4.6500033893784502e+02 4.2007190950221872e+02 3.0198609989418246e+03 0 0 0
950 6 15 0.0000000000000000e+00 4.7749589438194340e+02 3.9679993011166977e+02 2.9830569009299097e+03 0 0 0
11025 68 18 0.0000000000000000e+00 4.2925295301198759e+02 4.1780563856984401e+02 2.9887468305194711e+03 1 0 0
940 6 18 0.0000000000000000e+00 4.6524907853318109e+02 3.9383903895491648e+02 2.9867963050548069e+03 0 0 0
11050 68 15 0.0000000000000000e+00 4.2209323324426339e+02 3.9438272227923147e+02 2.9813282059772841e+03 1 0 0
10297 64 12 0.0000000000000000e+00 4.3869982846411483e+02 4.3194473420891745e+02 2.9779326826923316e+03 0 0 1
13961 86 18 0.0000000000000000e+00 4.8885954200151366e+02 3.9843000389653156e+02 2.9827289240409582e+03 0 0 0
914 6 2 0.0000000000000000e+00 4.4124426761445193e+02 3.8197620288522450e+02 2.9926721490652321e+03 0 0 0
11049 68 2 0.0000000000000000e+00 4.2405629105623660e+02 3.9659559426614436e+02 2.9790649618799780e+03 1 0 0
11805 73 12 0.0000000000000000e+00 4.4773775345406949e+02 4.1997766943891361e+02 3.0048386991355028e+03 0 0 0
10957 68 12 0.0000000000000000e+00 4.3988181121417801e+02 4.0928107535817156e+02 3.0154737865879274e+03 1 0 0
16135 99 9 0.0000000000000000e+00 4.9292588434467422e+02 3.7817446013251441e+02 3.0012905965448103e+03 0 0 0
12073 75 4 0.0000000000000000e+00 4.4772453786648668e+02 3.9469384079928227e+02 2.9800786474546476e+03 0 0 0
680 5 12 0.0000000000000000e+00 5.0158062186302385e+02 3.9552566259609790e+02 2.9886873361916460e+03 -1 0 0
3243 20 12 0.0000000000000000e+00 4.8991301984241102e+02 4.0080580076030697e+02 3.0170183877289551e+03 0 0 0
3248 20 18 0.0000000000000000e+00 4.8686725306536488e+02 3.9392952481114162e+02 3.0148878058770124e+03 0 0 0
15203 94 15 0.0000000000000000e+00 4.9493000451976104e+02 3.8274894987140203e+02 2.9842708223677819e+03 0 1 0
4224 26 9 0.0000000000000000e+00 4.2483492160686757e+02 3.9132537060262047e+02 2.9767052853267433e+03 0 0 0