LAMMPS data file via write_data, version 2 Jun 2020, timestep = 20000

16300 atoms
54 atom types
16200 bonds
2 bond types
2600 angles
2 angle types

4.2000000000000000e+02 6.0600000000000000e+02 xlo xhi
3.7600000000000000e+02 5.6200000000000000e+02 ylo yhi
2.9760000000000000e+03 3.1620000000000000e+03 zlo zhi

Masses

1 131.2
2 57.05
3 128.2
4 101.1
5 156.2
6 71.08
7 115.1
8 129.1
9 163.2
10 99.07
11 113.2
12 128.1
13 186.2
14 147.2
15 87.08
16 137.1
17 114.1
18 97.12
19 103.1
20 113.2
21 131.2
22 57.05
23 128.2
24 101.1
25 156.2
26 71.08
27 115.1
28 129.1
29 163.2
30 99.07
31 113.2
32 128.1
33 186.2
34 147.2
35 87.08
36 137.1
37 114.1
38 97.12
39 103.1
40 113.2
41 329.2
42 305.2
43 345.2
44 306.2
45 87.08
46 107.44
47 87.08
48 107.48
49 57.05
50 86.92
51 86.92
52 86.92
53 107.44
54 107.48

Bond Coeffs # harmonic

1 2.39 3.81
2 2.39 5

Angle Coeffs # harmonic

1 0.0001 180
2 5 180

Atoms # full

14799 91 15 0.0000000000000000e+00 4.7024806445081077e+02 4.1445808833993885e+02 2.9793254015654879e+03 0 0 0
3246 20 9 0.0000000000000000e+00 5.0509828345089790e+02 3.9568277148059053e+02 3.0108147209615518e+03 0 0 0
14050 87 18 0.0000000000000000e+00 4.4514976754054595e+02 3.9295840486945878e+02 3.0140832514080685e+03 0 0 0
682 5 15 0.0000000000000000e+00 4.8811572022102069e+02 4.1404578785915805e+02 3.0080998580080613e+03 -1 0 0
11777 73 9 0.0000000000000000e+00 4.2030095118532239e+02 4.0096641908480319e+02 3.0173572336301308e+03 0 0 0
7983 49 17 0.0000000000000000e+00 4.3396176119570225e+02 3.9501423583112029e+02 2.9932663001650071e+03 0 0 1
14332 88 18 0.0000000000000000e+00 4.9343508540857596e+02 4.0809156401333541e+02 3.0223967303016511e+03 0 0 0
3876 24 15 0.0000000000000000e+00 4.4140198691510204e+02 4.2209983282068356e+02 3.0101475687923376e+03 0 0 0
3878 24 15 0.0000000000000000e+00 4.3950084446361558e+02 4.1704756177424156e+02 3.0110717072977277e+03 0 0 0
14092 87 2 0.0000000000000000e+00 4.7546996438674955e+02 3.8011413036115005e+02 2.9938211271096998e+03 0 0 0
14066 87 15 0.0000000000000000e+00 4.4900448217536552e+02 3.8220728548485954e+02 2.9961262714820195e+03 0 0 0
3217 20 15 0.0000000000000000e+00 5.0536745346055096e+02 4.0137081122918971e+02 2.9947210879941226e+03 0 0 0
7980 49 2 0.0000000000000000e+00 4.3634642080520189e+02 3.9179548038845195e+02 2.9853265225865562e+03 0 0 1
681 5 15 0.0000000000000000e+00 4.8959898214634660e+02 4.1366156510409746e+02 3.0046813000592538e+03 -1 0 0
3212 20 15 0.0000000000000000e+00 4.9175370865312277e+02 3.9892105135550713e+02 3.0005097215355427e+03 0 0 0
14027 87 12 0.0000000000000000e+00 4.3115573662742804e+02 3.9910347817182992e+02 3.0044712125085398e+03 0 0 0
14343 88 17 0.0000000000000000e+00 5.0342595039085620e+02 4.2220515782138949e+02 3.0218842549062360e+03 0 0 0
14045 87 12 0.0000000000000000e+00 4.4113700336994748e+02 3.8740644980319598e+02 3.0095476131253104e+03 0 0 0
14064 87 7 -1.0000000000000000e+00 4.5436461011789038e+02 3.8206033670344232e+02 2.9978517710253227e+03 0 0 0
14513 90 9 0.0000000000000000e+00 4.9164688184197973e+02 3.9991391742985053e+02 2.9816392336095159e+03 0 0 0
13950 86 15 0.0000000000000000e+00 4.5582474011068626e+02 3.8009091214291885e+02 3.0119974428163860e+03 0 0 0
14800 91 9 0.0000000000000000e+00 4.7264459462052611e+02 4.1254850582987558e+02 2.9814110268136910e+03 0 0 0
3213 20 15 0.0000000000000000e+00 4.9373471062453780e+02 4.0011729073259892e+02 2.9978227010261671e+03 0 0 0
14184 88 15 0.0000000000000000e+00 5.1094040315993107e+02 4.0890983845525386e+02 3.0198859793553956e+03 0 0 0
14028 87 6 0.0000000000000000e+00 4.3330647870748260e+02 3.9656872795493189e+02 3.0063615090989360e+03 0 0 0
920 6 6 0.0000000000000000e+00 4.6764625151702222e+02 3.8991248512464580e+02 2.9762625225009656e+03 0 0 0
1632 11 6 0.0000000000000000e+00 5.0783392731973845e+02 4.0887298643067220e+02 2.9919519811601372e+03 -1 0 0
14827 91 12 0.0000000000000000e+00 4.8753629285047629e+02 4.0773438176181389e+02 2.9836386544372822e+03 0 0 0
7982 49 12 0.0000000000000000e+00 4.3483236805403459e+02 3.9512403716155268e+02 2.9889592535610932e+03 0 0 1
4047 25 15 0.0000000000000000e+00 4.9069363294641965e+02 3.8335133425778622e+02 2.9799905650481346e+03 -1 0 0
3239 20 15 0.0000000000000000e+00 5.0807911583387988e+02 3.8544750412709396e+02 3.0068231765862397e+03 0 0 0
14061 87 12 0.0000000000000000e+00 4.4586172608397976e+02 3.7872404329665096e+02 3.0021109206208848e+03 0 0 0
6701 42 18 0.0000000000000000e+00 5.1097013877077853e+02 4.1862022859230819e+02 3.0133862156643545e+03 -1 0 0
170 2 4 0.0000000000000000e+00 4.4668595832334728e+02 4.0192212608565205e+02 2.9938697125298509e+03 0 0 0
11800 73 4 0.0000000000000000e+00 4.4610282524763818e+02 4.1222394555973267e+02 2.9882351746708746e+03 0 0 0
4454 28 15 0.0000000000000000e+00 4.3980105900187311e+02 4.1728412316891428e+02 3.0203267024867437e+03 0 0 0
3182 20 12 0.0000000000000000e+00 5.0143823111743734e+02 4.1327826269698443e+02 2.9786664341180485e+03 0 0 0
13946 86 9 0.0000000000000000e+00 4.6025114460727758e+02 3.7792890335394782e+02 3.0058599190297355e+03 0 0 0
14031 87 15 0.0000000000000000e+00 4.3623490764734612e+02 4.0211178635137071e+02 3.0085699803184921e+03 0 0 0
11842 73 18 0.0000000000000000e+00 4.7833307095941768e+02 4.2243834788648650e+02 2.9765765803163295e+03 0 0 0
922 6 15 0.0000000000000000e+00 4.6979804549342617e+02 3.9561961724821157e+02 2.9793182825686754e+03 0 0 0
3879 24 9 0.0000000000000000e+00 4.3483463665075897e+02 4.1752453164742207e+02 3.0118725683696080e+03 0 0 0
13180 81 12 0.0000000000000000e+00 4.2730409324212798e+02 3.7704995562258404e+02 3.0191615946931479e+03 0 0 0
14339 88 12 0.0000000000000000e+00 5.1111870168532880e+02 4.1643149811751022e+02 3.0201341084744458e+03 0 0 0
4045 25 12 0.0000000000000000e+00 4.9359567176650205e+02 3.8616169318244272e+02 2.9839506649133500e+03 -1 0 0
3215 20 12 0.0000000000000000e+00 4.9905678948693554e+02 3.9873957119738986e+02 2.9956654257234909e+03 0 0 0
13942 86 15 0.0000000000000000e+00 4.6497841944678100e+02 3.8709251840467516e+02 3.0033793037656465e+03 0 0 0
14522 90 2 0.0000000000000000e+00 4.9939678444028686e+02 3.9370161134693996e+02 2.9782797519499563e+03 0 0 0
7973 49 9 0.0000000000000000e+00 4.3093260525774087e+02 3.8195802596874807e+02 2.9915436138016717e+03 0 0 1
688 5 12 0.0000000000000000e+00 5.0034940545907051e+02 4.1419359243409951e+02 3.0160359181689596e+03 -1 0 0
13938 86 15 0.0000000000000000e+00 4.6875414592423948e+02 3.8498860192466998e+02 2.9980870342091926e+03 0 0 0
3225 20 2 0.0000000000000000e+00 5.0988806061331428e+02 3.9220854749096969e+02 3.0029649003231625e+03 0 0 0
4037 25 18 0.0000000000000000e+00 5.0363221601692561e+02 3.9027056149393292e+02 2.9855764726194470e+03 -1 0 0
14091 87 12 0.0000000000000000e+00 4.7262597490185277e+02 3.7876683076688300e+02 2.9927472424681646e+03 0 0 0
13941 86 15 0.0000000000000000e+00 4.6623899207366185e+02 3.9013765959799912e+02 3.0025423474868826e+03 0 0 0
14024 87 9 0.0000000000000000e+00 4.2523210335769369e+02 4.0299031418255976e+02 2.9982306147334084e+03 0 0 0
13888 86 9 0.0000000000000000e+00 4.9240925330713043e+02 4.2102620793451530e+02 2.9918703477834961e+03 0 0 0
14514 90 4 0.0000000000000000e+00 4.9395272830775883e+02 4.0230497810999321e+02 2.9827612796674443e+03 0 0 0
3244 20 12 0.0000000000000000e+00 4.9949070868519919e+02 3.9276250865522138e+02 3.0101661588705583e+03 0 0 0
14080 87 12 0.0000000000000000e+00 4.6392259387406210e+02 3.8414371747503617e+02 2.9805876764779355e+03 0 0 0
14030 87 12 0.0000000000000000e+00 4.3647089240201296e+02 3.9902954860562147e+02 3.0095523473491885e+03 0 0 0
13929 86 2 0.0000000000000000e+00 4.6765809245173341e+02 3.9062653826529157e+02 3.0192729795573682e+03 0 0 0
13923 86 4 0.0000000000000000e+00 4.7047211180915792e+02 3.9608575333992275e+02 3.0084134399430372e+03 0 0 0
5708 36 15 0.0000000000000000e+00 4.4826036089071715e+02 3.8750988292919953e+02 3.0230963062545416e+03 0 0 0
685 5 9 0.0000000000000000e+00 4.9197780921921742e+02 4.1395984008567348e+02 3.0141012171679890e+03 -1 0 0
4042 25 9 0.0000000000000000e+00 4.9235675364534620e+02 3.9162431584195855e+02 2.9887465344817874e+03 -1 0 0
13935 86 49 0.0000000000000000e+00 4.7409221422087194e+02 3.8372492342111758e+02 3.0038644680849034e+03 0 0 0
14068 87 9 0.0000000000000000e+00 4.4349898056471596e+02 3.8432137504020204e+02 2.9913536525977911e+03 0 0 0
696 5 15 0.0000000000000000e+00 5.1107352901918023e+02 4.0981245973729483e+02 3.0043860969575676e+03 -1 0 0
684 5 18 0.0000000000000000e+00 4.8976242698376223e+02 4.1692368315480320e+02 3.0139204876291619e+03 -1 0 0
7972 49 15 0.0000000000000000e+00 4.3142398433657479e+02 3.7794962037649543e+02 2.9922241702616680e+03 0 0 1
14829 91 17 0.0000000000000000e+00 4.8748645650316814e+02 4.1253079674667475e+02 2.9891044357320493e+03 0 0 0
10437 65 7 -1.0000000000000000e+00 5.0877262198596372e+02 3.7692484082958606e+02 3.0056682991113180e+03 0 0 0
14344 88 15 0.0000000000000000e+00 5.0133520279528170e+02 4.2096511497671838e+02 3.0184545066805567e+03 0 0 0
11819 73 15 0.0000000000000000e+00 4.6728454627865312e+02 3.9178579889221800e+02 2.9901856955782578e+03 0 0 0
5710 36 7 -1.0000000000000000e+00 4.5104695030413444e+02 3.9396112713191218e+02 3.0226092075520783e+03 0 0 0
3221 20 12 0.0000000000000000e+00 5.0601789647016085e+02 4.0310833779775919e+02 3.0070873538111291e+03 0 0 0
3220 20 2 0.0000000000000000e+00 5.0655386657364477e+02 4.0490410268950927e+02 3.0037889433994324e+03 0 0 0
14026 87 12 0.0000000000000000e+00 4.2798430834927910e+02 4.0002241106351312e+02 3.0026146328198251e+03 0 0 0
4067 25 9 0.0000000000000000e+00 4.7614080271171400e+02 3.9038152291821092e+02 2.9773093568580534e+03 -1 0 0
13945 86 15 0.0000000000000000e+00 4.6261985197566560e+02 3.7804454469680110e+02 3.0033779276569198e+03 0 0 0
11805 73 12 0.0000000000000000e+00 4.5321070703998242e+02 4.0588017513602267e+02 2.9868757472123898e+03 0 0 0
172 2 12 0.0000000000000000e+00 4.4630314091482398e+02 4.0540342002426746e+02 2.9892937027273197e+03 0 0 0
4036 25 12 0.0000000000000000e+00 5.0543597025975407e+02 3.8988726470987046e+02 2.9820760051213138e+03 -1 0 0
3891 24 15 0.0000000000000000e+00 4.2380357443526640e+02 4.1749792555351530e+02 3.0171267074329453e+03 0 0 0
3074 19 12 0.0000000000000000e+00 4.2035200485190035e+02 3.7918646941538753e+02 3.0132379260049506e+03 0 0 0
3178 20 9 0.0000000000000000e+00 5.0580048570132004e+02 4.0391643914187512e+02 2.9760849298174385e+03 0 0 0
3764 24 2 0.0000000000000000e+00 4.5483105709108406e+02 4.0900586096251516e+02 3.0067235222815316e+03 0 0 0
14062 87 15 0.0000000000000000e+00 4.4919418282651810e+02 3.7855640535791946e+02 3.0001989215648587e+03 0 0 0
3211 20 2 0.0000000000000000e+00 4.9441792777502059e+02 3.9802895745550393e+02 3.0036213501865068e+03 0 0 0
3238 20 12 0.0000000000000000e+00 5.0892006025722412e+02 3.8577469026052887e+02 3.0103389541680212e+03 0 0 0
14810 91 12 0.0000000000000000e+00 4.7912158751680664e+02 4.1498535608231464e+02 2.9805132336145971e+03 0 0 0
11783 73 4 0.0000000000000000e+00 4.2659641507483775e+02 3.9613153839108179e+02 3.0156498448262996e+03 0 0 0
174 2 4 0.0000000000000000e+00 4.4552536509539976e+02 4.0064837474614137e+02 2.9842702166917534e+03 0 0 0
14826 91 2 0.0000000000000000e+00 4.8531300669424866e+02 4.1035558048267131e+02 2.9804371002535909e+03 0 0 0
11791 73 9 0.0000000000000000e+00 4.4017832173527228e+02 4.1091977378885787e+02 3.0119365502844435e+03 0 0 0
13953 86 18 0.0000000000000000e+00 4.6183806958062650e+02 3.7708054548013007e+02 3.0125206278597952e+03 0 0 0
11790 73 15 0.0000000000000000e+00 4.3656042319575585e+02 4.1097984988460985e+02 3.0110245960148086e+03 0 0 0
13903 86 15 0.0000000000000000e+00 5.0781054743768243e+02 4.1065625081166354e+02 2.9971017796084952e+03 0 0 0
13905 86 9 0.0000000000000000e+00 5.0054662419842884e+02 4.0969137382070852e+02 2.9975498627575785e+03 0 0 0
169 2 9 0.0000000000000000e+00 4.4541029632793487e+02 3.9842043441749797e+02 2.9941559068044426e+03 0 0 0
3890 24 12 0.0000000000000000e+00 4.2730618613841540e+02 4.1978066124625207e+02 3.0193503400247114e+03 0 0 0
3222 20 18 0.0000000000000000e+00 5.0444027040749239e+02 3.9954133709337304e+02 3.0065571741302747e+03 0 0 0
15144 93 15 0.0000000000000000e+00 4.5671517308276640e+02 4.1811989160513832e+02 3.0153797939388555e+03 0 0 0
11824 73 12 0.0000000000000000e+00 4.7272527791250025e+02 4.0417471315731586e+02 2.9954523142483895e+03 0 0 0
14058 87 2 0.0000000000000000e+00 4.3703116326737393e+02 3.8050046411484720e+02 3.0050753618018557e+03 0 0 0
689 5 15 0.0000000000000000e+00 5.0343956851834270e+02 4.1602685372376175e+02 3.0136203683209983e+03 -1 0 0
14074 87 15 0.0000000000000000e+00 4.5452349334844985e+02 3.8565742512539271e+02 2.9824444416676802e+03 0 0 0
14073 87 9 0.0000000000000000e+00 4.5420191964457473e+02 3.8934372777966882e+02 2.9840661618847721e+03 0 0 0
11786 73 9 0.0000000000000000e+00 4.2608850301816705e+02 4.0409792990233177e+02 3.0121133475187180e+03 0 0 0
14063 87 4 0.0000000000000000e+00 4.5253111684296897e+02 3.8017693105129672e+02 3.0008531199998947e+03 0 0 0
14326 88 12 0.0000000000000000e+00 4.9322825624394181e+02 4.2043678306647456e+02 3.0200261377606025e+03 0 0 0
4046 25 18 0.0000000000000000e+00 4.9208105402663767e+02 3.8278587581444640e+02 2.9839209181629444e+03 -1 0 0
11781 73 4 0.0000000000000000e+00 4.2283430142803559e+02 3.9503640088832958e+02 3.0195496921462914e+03 0 0 0
925 6 15 0.0000000000000000e+00 4.6756836062998923e+02 4.0409939328364362e+02 2.9782600672190338e+03 0 0 0
14049 87 12 0.0000000000000000e+00 4.4823022701993767e+02 3.9136784329857716e+02 3.0164397000539802e+03 0 0 0
11013 68 2 0.0000000000000000e+00 4.2263028742395386e+02 4.0905771668695922e+02 2.9810011468770854e+03 1 0 0
11785 73 2 0.0000000000000000e+00 4.2575078595216735e+02 4.0232201028994297e+02 3.0160187778417821e+03 0 0 0
15145 93 9 0.0000000000000000e+00 4.5619060783547695e+02 4.2095726338383264e+02 3.0184708645582559e+03 0 0 0
14518 90 4 0.0000000000000000e+00 4.9715675394848648e+02 3.9830651254135734e+02 2.9872955766894465e+03 0 0 0
14327 88 12 0.0000000000000000e+00 4.9504169426741220e+02 4.2128931615285779e+02 3.0237391217255677e+03 0 0 0
11840 73 18 0.0000000000000000e+00 4.8167588238509666e+02 4.2049522516293541e+02 2.9818556708911706e+03 0 0 0
4071 25 17 0.0000000000000000e+00 4.7234856598249360e+02 3.8280674350237433e+02 2.9762694962247879e+03 -1 0 0
3248 20 18 0.0000000000000000e+00 5.0758187288702197e+02 4.0138458830585063e+02 3.0139541625197553e+03 0 0 0
3250 20 12 0.0000000000000000e+00 5.1269987090484483e+02 4.0210236817588418e+02 3.0139731440468831e+03 0 0 0
13949 86 12 0.0000000000000000e+00 4.5560679622350409e+02 3.8379547973706138e+02 3.0096112844378363e+03 0 0 0
3881 24 12 0.0000000000000000e+00 4.3201866734239201e+02 4.2021994619156357e+02 3.0044782566260396e+03 0 0 0
4073 25 9 0.0000000000000000e+00 4.7258518787428648e+02 3.8233007235319525e+02 2.9830391458061827e+03 -1 0 0
14065 87 4 0.0000000000000000e+00 4.5299542556677409e+02 3.8216084094939464e+02 2.9945929877285462e+03 0 0 0
164 2 1 0.0000000000000000e+00 4.5250230893350187e+02 3.8925547474273179e+02 2.9959327630788898e+03 0 0 0
13986 86 15 0.0000000000000000e+00 4.5401165956490570e+02 3.8383964945402607e+02 3.0211202566979650e+03 0 0 0
3893 24 2 0.0000000000000000e+00 4.2490134441184597e+02 4.1363422800534687e+02 3.0138802218058722e+03 0 0 0
693 5 9 0.0000000000000000e+00 5.0302444068151630e+02 4.1506249089123600e+02 3.0056049616250693e+03 -1 0 0
924 6 4 0.0000000000000000e+00 4.7075812909251283e+02 4.0118854137509823e+02 2.9785012615322298e+03 0 0 0
11839 73 12 0.0000000000000000e+00 4.8085560353197451e+02 4.2061607498957852e+02 2.9849715928848491e+03 0 0 0
14334 88 12 0.0000000000000000e+00 4.9588440618647689e+02 4.1367428395864340e+02 3.0210803900339770e+03 0 0 0
11813 73 15 0.0000000000000000e+00 4.6370733632078372e+02 3.9800262216680693e+02 2.9800084307336501e+03 0 0 0
14086 87 4 0.0000000000000000e+00 4.6502453552955058e+02 3.7634981881615568e+02 2.9935593220882611e+03 0 0 0
166 2 15 0.0000000000000000e+00 4.4789557091381045e+02 3.9182479347902756e+02 2.9902394510469417e+03 0 0 0
7981 49 12 0.0000000000000000e+00 4.3298489188006920e+02 3.9356920127451463e+02 2.9863834191697151e+03 0 0 1
14021 87 15 0.0000000000000000e+00 4.3193756922381476e+02 4.0814961850889625e+02 2.9992266013867279e+03 0 0 0
3192 20 15 0.0000000000000000e+00 4.9629174230584778e+02 4.1934202686401073e+02 2.9849829263068641e+03 0 0 0
14516 90 12 0.0000000000000000e+00 4.9792476380974171e+02 4.0390049477858003e+02 2.9884666595926155e+03 0 0 0
171 2 12 0.0000000000000000e+00 4.4608168689193218e+02 4.0520598955809510e+02 2.9926999068659220e+03 0 0 0
13901 86 7 -1.0000000000000000e+00 5.0766038420020965e+02 4.1629519096153649e+02 2.9999540635140256e+03 0 0 0
3219 20 9 0.0000000000000000e+00 5.0346870284722269e+02 4.0491961054254443e+02 3.0015683522853487e+03 0 0 0
13934 86 2 0.0000000000000000e+00 4.7295289963931248e+02 3.8542135851862065e+02 3.0075812002810890e+03 0 0 0
10447 65 2 0.0000000000000000e+00 5.0844611799697992e+02 3.9862025186471709e+02 2.9988062207378966e+03 0 0 0
1633 11 15 0.0000000000000000e+00 5.1121129038502175e+02 4.1045893870390319e+02 2.9929504319403723e+03 -1 0 0
13948 86 12 0.0000000000000000e+00 4.5747123465700474e+02 3.8359197325875061e+02 3.0060350555821005e+03 0 0 0
13930 86 9 0.0000000000000000e+00 4.6675904419268102e+02 3.8885923687739512e+02 3.0156933591498755e+03 0 0 0
14043 87 9 0.0000000000000000e+00 4.4548159377286669e+02 3.8769057479990784e+02 3.0039771914527651e+03 0 0 0
10438 65 9 0.0000000000000000e+00 5.0758680004227426e+02 3.7640238679441666e+02 3.0028057786182744e+03 0 0 0
11784 73 15 0.0000000000000000e+00 4.2771833491499007e+02 3.9934664269291795e+02 3.0148680529040557e+03 0 0 0
14340 88 17 0.0000000000000000e+00 5.0836672209997414e+02 4.1913561567428150e+02 3.0185279218044761e+03 0 0 0
13933 86 4 0.0000000000000000e+00 4.6960475076063852e+02 3.8626421232105571e+02 3.0083360418004631e+03 0 0 0
14078 87 12 0.0000000000000000e+00 4.6071044836753191e+02 3.9017820039512429e+02 2.9785220803489233e+03 0 0 0
3216 20 15 0.0000000000000000e+00 5.0171676748234438e+02 4.0070667183565894e+02 2.9938151830090269e+03 0 0 0
3870 24 15 0.0000000000000000e+00 4.4359636694553694e+02 4.2111054868346298e+02 3.0240668404362018e+03 0 0 0
11014 68 12 0.0000000000000000e+00 4.2641249346763885e+02 4.0954948326595820e+02 2.9807559883348767e+03 1 0 0
3896 24 12 0.0000000000000000e+00 4.2584991987942863e+02 4.0932362721277258e+02 3.0217475803176731e+03 0 0 0
928 6 9 0.0000000000000000e+00 4.6509938379069098e+02 4.1033437045538147e+02 2.9774265498664381e+03 0 0 0
14072 87 15 0.0000000000000000e+00 4.5121367668614408e+02 3.8994543270203405e+02 2.9860925641653671e+03 0 0 0
14029 87 4 0.0000000000000000e+00 4.3430945124233716e+02 3.9666577450767062e+02 3.0097411830431033e+03 0 0 0
5707 36 6 0.0000000000000000e+00 4.4572705529892079e+02 3.8473789301202089e+02 3.0230499844331016e+03 0 0 0
3183 20 15 0.0000000000000000e+00 4.9885303185394241e+02 4.1143895435739267e+02 2.9767040941894156e+03 0 0 0
14811 91 12 0.0000000000000000e+00 4.7887099265519805e+02 4.1419311904056093e+02 2.9772411364620975e+03 0 0 0
11827 73 9 0.0000000000000000e+00 4.7031812190768721e+02 4.0603648793964879e+02 3.0033314432379420e+03 0 0 0
14807 91 2 0.0000000000000000e+00 4.7517584940666490e+02 4.1100671564734114e+02 2.9878686698503407e+03 0 0 0
13924 86 12 0.0000000000000000e+00 4.7078750836707411e+02 3.9303202282190801e+02 3.0107267118707523e+03 0 0 0
14052 87 2 0.0000000000000000e+00 4.4008090244170052e+02 3.9312512159029552e+02 3.0096801242862225e+03 0 0 0
4478 28 15 0.0000000000000000e+00 4.2838945447896407e+02 4.0412483865074387e+02 3.0213757860464962e+03 0 0 0
14022 87 17 0.0000000000000000e+00 4.2891104465093946e+02 4.0842399491713519e+02 2.9993354739859251e+03 0 0 0
15143 93 12 0.0000000000000000e+00 4.5802060803969965e+02 4.2015482737553538e+02 3.0121575530202399e+03 0 0 0
7987 49 15 0.0000000000000000e+00 4.2932999000651478e+02 3.8666611129801305e+02 2.9991759755148641e+03 0 0 1
14832 91 17 0.0000000000000000e+00 4.8684934021381355e+02 4.0960451121812105e+02 2.9973942916484925e+03 0 0 0
11841 73 6 0.0000000000000000e+00 4.8129066288233952e+02 4.2069719925679499e+02 2.9782620910651631e+03 0 0 0
14060 87 15 0.0000000000000000e+00 4.4133568186504999e+02 3.7872250657337366e+02 3.0014605332712072e+03 0 0 0
3757 24 12 0.0000000000000000e+00 4.7004625898750407e+02 4.0892433177796420e+02 2.9933629820160295e+03 0 0 0
11804 73 4 0.0000000000000000e+00 4.5127793211806511e+02 4.0860101823821799e+02 2.9849711885783108e+03 0 0 0
4039 25 15 0.0000000000000000e+00 4.9893437488725823e+02 3.9082444192962333e+02 2.9897903126660749e+03 -1 0 0
167 2 17 0.0000000000000000e+00 4.4503634354145385e+02 3.9383386955989192e+02 2.9891533230872110e+03 0 0 0
4453 28 12 0.0000000000000000e+00 4.4243553335649648e+02 4.1467131121295017e+02 3.0199918546517192e+03 0 0 0
14055 87 15 0.0000000000000000e+00 4.3325171697196367e+02 3.9032255763531333e+02 3.0056795806320392e+03 0 0 0
14046 87 12 0.0000000000000000e+00 4.4216796127252479e+02 3.8700409297781016e+02 3.0129738779222143e+03 0 0 0
14042 87 2 0.0000000000000000e+00 4.4316887937964367e+02 3.8723911150410720e+02 3.0001467326296952e+03 0 0 0
14038 87 12 0.0000000000000000e+00 4.4669687208461193e+02 3.9549099339665275e+02 3.0059656385345365e+03 0 0 0
14037 87 4 0.0000000000000000e+00 4.4507379937628207e+02 3.9841409163069636e+02 3.0057479586202508e+03 0 0 0
14040 87 2 0.0000000000000000e+00 4.4405085773900760e+02 3.9310515863833865e+02 3.0019954793653746e+03 0 0 0
3218 20 15 0.0000000000000000e+00 5.0300334631076981e+02 4.0343185798240023e+02 2.9980658908526962e+03 0 0 0
14041 87 12 0.0000000000000000e+00 4.4117451330533339e+02 3.9016975531131931e+02 3.0005000170425078e+03 0 0 0
10445 65 15 0.0000000000000000e+00 5.0440011033005914e+02 3.9378349017281971e+02 2.9992659824730558e+03 0 0 0
14039 87 18 0.0000000000000000e+00 4.4751017817508915e+02 3.9389397506086675e+02 3.0024728266168063e+03 0 0 0
11835 73 2 0.0000000000000000e+00 4.8011509467705656e+02 4.1989108250447561e+02 2.9988490471320188e+03 0 0 0
177 2 9 0.0000000000000000e+00 4.4841429035179726e+02 4.0515982339711013e+02 2.9769318596221233e+03 0 0 0
7975 49 18 0.0000000000000000e+00 4.3257797761001410e+02 3.8473277250190966e+02 2.9853110713977817e+03 0 0 1
13928 86 12 0.0000000000000000e+00 4.7104749569283302e+02 3.8981257150480872e+02 3.0203329475953515e+03 0 0 0
3750 24 1 0.0000000000000000e+00 4.6090351956959142e+02 4.0229883232761608e+02 2.9893775791180860e+03 0 0 0
3760 24 4 0.0000000000000000e+00 4.6399399403640484e+02 4.1031573355902077e+02 2.9991439286564123e+03 0 0 0
14036 87 18 0.0000000000000000e+00 4.4597287596134458e+02 4.0072934131925058e+02 3.0039289279744876e+03 0 0 0
14081 87 17 0.0000000000000000e+00 4.6030169913308356e+02 3.8535202725338917e+02 2.9821266561112202e+03 0 0 0
14035 87 9 0.0000000000000000e+00 4.4383823888827186e+02 4.0131346849884386e+02 3.0006133352009092e+03 0 0 0
11823 73 15 0.0000000000000000e+00 4.7428587526098426e+02 4.0129154243037141e+02 2.9938996205802159e+03 0 0 0
9657 60 2 0.0000000000000000e+00 4.4181574410144520e+02 3.8010046726677996e+02 3.0183721379816075e+03 0 0 0
10441 65 12 0.0000000000000000e+00 5.0395736169327739e+02 3.8243988709547057e+02 2.9972290302391980e+03 0 0 0
4471 28 15 0.0000000000000000e+00 4.3585449952840548e+02 4.1326178297617980e+02 3.0229553239018924e+03 0 0 0
4070 25 12 0.0000000000000000e+00 4.7657449403538260e+02 3.8257476404179397e+02 2.9774929110537314e+03 -1 0 0
11817 73 9 0.0000000000000000e+00 4.6456876626972263e+02 3.8817988279661176e+02 2.9856223910343779e+03 0 0 0
4452 28 2 0.0000000000000000e+00 4.4548409235180014e+02 4.1404500748777497e+02 3.0223142922061652e+03 0 0 0
10442 65 6 0.0000000000000000e+00 5.0606868469555144e+02 3.8600903714693368e+02 2.9977802614277666e+03 0 0 0
14517 90 6 0.0000000000000000e+00 4.9810865962356257e+02 4.0015460023112047e+02 2.9903743391870744e+03 0 0 0
14094 87 2 0.0000000000000000e+00 4.7822496406118410e+02 3.7619804588415508e+02 2.9956946894405260e+03 0 0 0
10446 65 9 0.0000000000000000e+00 5.0451723633063756e+02 3.9788509000259546e+02 2.9995385756154301e+03 0 0 0
13937 86 2 0.0000000000000000e+00 4.7077546548776053e+02 3.8204058902836965e+02 3.0001374999032032e+03 0 0 0
13932 86 15 0.0000000000000000e+00 4.6791623179870351e+02 3.8576154036366449e+02 3.0114663143976409e+03 0 0 0
3253 20 2 0.0000000000000000e+00 5.1293020988792694e+02 3.9786142284439160e+02 3.0083151461841958e+03 0 0 0
11788 73 12 0.0000000000000000e+00 4.3140248733118415e+02 4.0682170913644893e+02 3.0134401328860017e+03 0 0 0
11789 73 15 0.0000000000000000e+00 4.3480954483234905e+02 4.0890762833510530e+02 3.0136437413461035e+03 0 0 0
14093 87 9 0.0000000000000000e+00 4.7868252813008615e+02 3.7981585335890946e+02 2.9958637445880941e+03 0 0 0
14808 91 2 0.0000000000000000e+00 4.7833067722730391e+02 4.0980983313045971e+02 2.9859821914227450e+03 0 0 0
3188 20 9 0.0000000000000000e+00 4.9869220901632161e+02 4.1984666299475214e+02 2.9761186188951633e+03 0 0 0
3214 20 15 0.0000000000000000e+00 4.9713883348159806e+02 3.9770750381508265e+02 2.9989672858842414e+03 0 0 0
13939 86 15 0.0000000000000000e+00 4.6969402061382192e+02 3.8881779764686769e+02 2.9982181635103916e+03 0 0 0
3892 24 9 0.0000000000000000e+00 4.2463748636114059e+02 4.1775814831184903e+02 3.0133142531776030e+03 0 0 0
14079 87 15 0.0000000000000000e+00 4.6330981711499464e+02 3.8723589827372018e+02 2.9781292645808176e+03 0 0 0
903 6 12 0.0000000000000000e+00 4.4417632479191121e+02 3.7629220771927623e+02 2.9844572261911781e+03 0 0 0
3877 24 2 0.0000000000000000e+00 4.4010206924993321e+02 4.1989207229446953e+02 3.0082848061456029e+03 0 0 0
14082 87 4 0.0000000000000000e+00 4.5969934338966789e+02 3.8506722571436148e+02 2.9857213624853807e+03 0 0 0
14831 91 9 0.0000000000000000e+00 4.8492257964607865e+02 4.1234423726181404e+02 2.9946148232116734e+03 0 0 0
3771 24 2 0.0000000000000000e+00 4.4126525257428051e+02 4.2010174456828867e+02 3.0037787590242197e+03 0 0 0
3223 20 12 0.0000000000000000e+00 5.0646769529852259e+02 3.9718973217734202e+02 3.0049466774304251e+03 0 0 0
3194 20 9 0.0000000000000000e+00 4.9955425377166353e+02 4.1954333099242592e+02 2.9902233835870188e+03 0 0 0
13927 86 18 0.0000000000000000e+00 4.7283332556364604e+02 3.8691381766889481e+02 3.0181214602834857e+03 0 0 0
13931 86 2 0.0000000000000000e+00 4.6867099859454186e+02 3.8596484773627623e+02 3.0154439764656431e+03 0 0 0
14070 87 12 0.0000000000000000e+00 4.4554711497278794e+02 3.8569348585965844e+02 2.9847027431876331e+03 0 0 0
4043 25 15 0.0000000000000000e+00 4.9084637406798845e+02 3.9221107720670381e+02 2.9849218381513128e+03 -1 0 0
7978 49 2 0.0000000000000000e+00 4.3922120505471463e+02 3.8539501542703948e+02 2.9837946505834884e+03 0 0 1
3765 24 6 0.0000000000000000e+00 4.5317681467989274e+02 4.1198031142112524e+02 3.0094566817006898e+03 0 0 0
3224 20 15 0.0000000000000000e+00 5.0889488380235792e+02 3.9518039552135946e+02 3.0040679825966058e+03 0 0 0
14051 87 9 0.0000000000000000e+00 4.4183415763976524e+02 3.9361143247485199e+02 3.0128061170494530e+03 0 0 0
11799 73 17 0.0000000000000000e+00 4.4417539675663022e+02 4.1170759127174296e+02 2.9915440821532220e+03 0 0 0
14047 87 15 0.0000000000000000e+00 4.4472553242636093e+02 3.8721842020468210e+02 3.0160670331229385e+03 0 0 0
3243 20 12 0.0000000000000000e+00 4.9939329977889707e+02 3.8946979086453803e+02 3.0079915913334021e+03 0 0 0
13925 86 15 0.0000000000000000e+00 4.7096178235259077e+02 3.9171266250249562e+02 3.0141856283209877e+03 0 0 0
3767 24 18 0.0000000000000000e+00 4.5245319807840571e+02 4.1575789559622098e+02 3.0038359117142895e+03 0 0 0
14806 91 9 0.0000000000000000e+00 4.7603888909166045e+02 4.1411952547616545e+02 2.9903670960924087e+03 0 0 0
14520 90 15 0.0000000000000000e+00 5.0129000155433079e+02 3.9563531126651452e+02 2.9827496669514717e+03 0 0 0
11797 73 15 0.0000000000000000e+00 4.4409368754174164e+02 4.0945463093773259e+02 2.9981478115669133e+03 0 0 0
13951 86 15 0.0000000000000000e+00 4.5639233333923454e+02 3.7758427949732192e+02 3.0142552153477427e+03 0 0 0
13940 86 12 0.0000000000000000e+00 4.7000479807471868e+02 3.9122704540705104e+02 3.0016857191988825e+03 0 0 0
14510 90 15 0.0000000000000000e+00 4.8394770038724891e+02 3.9844573200461986e+02 2.9800594861039572e+03 0 0 0
13926 86 4 0.0000000000000000e+00 4.7425072759473829e+02 3.8947621020434849e+02 3.0155066347518095e+03 0 0 0
11818 73 2 0.0000000000000000e+00 4.6522523913497150e+02 3.9168639116146198e+02 2.9872825389106315e+03 0 0 0
4480 28 2 0.0000000000000000e+00 4.2295283777832617e+02 4.0454218964882534e+02 3.0214509652981437e+03 0 0 0
3195 20 18 0.0000000000000000e+00 5.0229601643563996e+02 4.1859460724594879e+02 2.9930990524940075e+03 0 0 0
14828 91 12 0.0000000000000000e+00 4.8761524420954157e+02 4.1009070724078168e+02 2.9860595843659116e+03 0 0 0
14071 87 15 0.0000000000000000e+00 4.4832175278333017e+02 3.8786777015081242e+02 2.9861800731785352e+03 0 0 0
11815 73 2 0.0000000000000000e+00 4.6162395492741121e+02 3.9322607783575535e+02 2.9834243845542419e+03 0 0 0
3761 24 12 0.0000000000000000e+00 4.6273799851669941e+02 4.0861964934677496e+02 3.0019416674300119e+03 0 0 0
7968 49 2 0.0000000000000000e+00 4.3318994216843760e+02 3.7882421232864795e+02 2.9795956261225733e+03 0 0 1
168 2 7 -1.0000000000000000e+00 4.4400769407921121e+02 3.9460100470794930e+02 2.9932385211188084e+03 0 0 0
14802 91 12 0.0000000000000000e+00 4.7004505642002164e+02 4.1624067648312928e+02 2.9862255231921367e+03 0 0 0
14033 87 2 0.0000000000000000e+00 4.3932516998317180e+02 4.0473078882941803e+02 3.0047326988178570e+03 0 0 0
14032 87 9 0.0000000000000000e+00 4.3601549267779694e+02 4.0280851245526071e+02 3.0047011372181119e+03 0 0 0
14798 91 2 0.0000000000000000e+00 4.6704947070209778e+02 4.1766913006538300e+02 2.9794571512847710e+03 0 0 0
4034 25 9 0.0000000000000000e+00 4.9822070853933479e+02 3.8879254245315940e+02 2.9808060597911435e+03 -1 0 0