LAMMPS data file via write_data, version 2 Jun 2020, timestep = 20000

16300 atoms
54 atom types
16200 bonds
2 bond types
2600 angles
2 angle types

4.2000000000000000e+02 5.992e+02 xlo xhi
3.7600000000000000e+02 5.552e+02 ylo yhi
2.9760000000000000e+03 3.155200000000000e+03 zlo zhi

Masses

1 131.2
2 57.05
3 128.2
4 101.1
5 156.2
6 71.08
7 115.1
8 129.1
9 163.2
10 99.07
11 113.2
12 128.1
13 186.2
14 147.2
15 87.08
16 137.1
17 114.1
18 97.12
19 103.1
20 113.2
21 131.2
22 57.05
23 128.2
24 101.1
25 156.2
26 71.08
27 115.1
28 129.1
29 163.2
30 99.07
31 113.2
32 128.1
33 186.2
34 147.2
35 87.08
36 137.1
37 114.1
38 97.12
39 103.1
40 113.2
41 329.2
42 305.2
43 345.2
44 306.2
45 87.08
46 107.44
47 87.08
48 107.48
49 57.05
50 86.92
51 86.92
52 86.92
53 107.44
54 107.48

Bond Coeffs # harmonic

1 2.39 3.81
2 2.39 5

Angle Coeffs # harmonic

1 0.0001 180
2 5 180

Atoms # full

13176 81 9 0.0000000000000000e+00 4.3751466148864432e+02 3.9079902923005864e+02 3.0063933327937184e+03 0 0 0
12088 75 15 0.0000000000000000e+00 4.6462699992931925e+02 4.0621933896735754e+02 2.9829777099320409e+03 0 0 0
13172 81 12 0.0000000000000000e+00 4.4341545313819620e+02 4.0179037533858207e+02 3.0058619348418370e+03 0 0 0
14063 87 4 0.0000000000000000e+00 4.3295732937487548e+02 3.8330285586663717e+02 2.9957832301815338e+03 0 0 0
13936 86 9 0.0000000000000000e+00 4.8086599878957810e+02 3.7712525677440431e+02 3.0041543010699361e+03 0 0 0
13922 86 2 0.0000000000000000e+00 4.9444049451015604e+02 3.8491892932961082e+02 2.9826282421168398e+03 0 0 0
14060 87 15 0.0000000000000000e+00 4.2854658761889914e+02 3.8905135184116381e+02 3.0022819370462953e+03 0 0 0
190 2 12 0.0000000000000000e+00 4.4138930738961398e+02 3.8418815235356152e+02 2.9800469318709615e+03 0 0 0
13906 86 2 0.0000000000000000e+00 5.0619393026086118e+02 3.9535892198019246e+02 2.9917238884705275e+03 0 0 0
4200 26 18 0.0000000000000000e+00 4.4723004328352209e+02 4.1039372931983974e+02 2.9809583196162903e+03 0 0 0
13180 81 12 0.0000000000000000e+00 4.3576010158104606e+02 3.9047638693223553e+02 3.0143662409712033e+03 0 0 0
8880 55 4 0.0000000000000000e+00 4.5650581528474720e+02 3.8495233873127603e+02 3.0187700980832083e+03 0 0 0
12083 75 18 0.0000000000000000e+00 4.5426965242568986e+02 4.1388550267178215e+02 2.9904663831344337e+03 0 0 0
14016 86 9 0.0000000000000000e+00 4.3287922326660896e+02 4.1754608816002622e+02 3.0190051781021557e+03 0 0 0
677 5 9 0.0000000000000000e+00 4.9268338438869756e+02 4.0162072969364613e+02 2.9947225174902760e+03 -1 0 0
659 5 4 0.0000000000000000e+00 5.0091826376322820e+02 3.9605656646675664e+02 3.0014060931353401e+03 -1 0 0
191 2 12 0.0000000000000000e+00 4.3790865651059897e+02 3.8534030243720161e+02 2.9817614487009496e+03 0 0 0
13165 81 18 0.0000000000000000e+00 4.5449459635800685e+02 3.9839882644221348e+02 2.9997703560832451e+03 0 0 0
176 2 15 0.0000000000000000e+00 4.3789928420259668e+02 3.7785239040364365e+02 3.0031735181772974e+03 0 0 0
3195 20 18 0.0000000000000000e+00 4.8352018011987315e+02 3.9073398858337742e+02 3.0035538971437304e+03 0 0 0
13952 86 9 0.0000000000000000e+00 4.7607091010677976e+02 3.9313275197578241e+02 2.9916099167682305e+03 0 0 0
13195 81 9 0.0000000000000000e+00 4.3265703081070120e+02 3.9907995029713379e+02 2.9931494293814026e+03 0 0 0
10963 68 15 0.0000000000000000e+00 4.2828501701641534e+02 4.1397733501111435e+02 3.0178582101889747e+03 1 0 0
11035 68 2 0.0000000000000000e+00 4.2897158178442902e+02 3.9357203444449402e+02 2.9766291427778319e+03 1 0 0
14012 86 12 0.0000000000000000e+00 4.4236466337063968e+02 4.1166226473144570e+02 3.0135478501535376e+03 0 0 0
10960 68 45 0.0000000000000000e+00 4.2777828029042399e+02 4.1154826182629455e+02 3.0119731914653025e+03 1 0 0
11818 73 2 0.0000000000000000e+00 4.8605342013019236e+02 4.1464098578890344e+02 2.9905525878756330e+03 0 0 0
13196 81 2 0.0000000000000000e+00 4.3496600897496830e+02 4.0083846509640557e+02 2.9954982641587908e+03 0 0 0
16105 99 15 0.0000000000000000e+00 5.0699783722904488e+02 3.8981342820474180e+02 3.0130651318195537e+03 0 0 0
13059 81 4 0.0000000000000000e+00 4.8276446523446293e+02 3.8321037298046235e+02 3.0157106505810939e+03 0 0 0
10932 68 4 0.0000000000000000e+00 4.2724001897217363e+02 4.1299220602016732e+02 2.9847143550628839e+03 1 0 0
3226 20 15 0.0000000000000000e+00 4.6969056027645394e+02 3.9324319059824217e+02 3.0200987295216082e+03 0 0 0
13938 86 15 0.0000000000000000e+00 4.8432630410417659e+02 3.8193495343938247e+02 3.0016209267712666e+03 0 0 0
911 6 15 0.0000000000000000e+00 4.7126127145504176e+02 3.9611931607668367e+02 2.9811265823229164e+03 0 0 0
3911 24 17 0.0000000000000000e+00 4.6088234140740798e+02 3.8295634075611713e+02 2.9989647701869521e+03 0 0 0
12081 75 4 0.0000000000000000e+00 4.5783825023697545e+02 4.1396287529529940e+02 2.9956708355123496e+03 0 0 0
15140 93 2 0.0000000000000000e+00 4.5902678457222430e+02 4.1043139568082256e+02 3.0013948544214609e+03 0 0 0
4645 29 9 0.0000000000000000e+00 4.2206877731564867e+02 4.1990612065933402e+02 3.0073672534127290e+03 0 0 0
12071 75 12 0.0000000000000000e+00 4.5436853306350139e+02 3.9355798527949929e+02 2.9892351877730403e+03 0 0 0
192 2 15 0.0000000000000000e+00 4.3363614980959215e+02 3.8403011776988041e+02 2.9817387713477920e+03 0 0 0
10936 68 2 0.0000000000000000e+00 4.2166439524402341e+02 4.1009399616523024e+02 2.9945274356242417e+03 1 0 0
12086 75 2 0.0000000000000000e+00 4.6097714315532846e+02 4.1076562694143001e+02 2.9855156748418262e+03 0 0 0
12084 75 2 0.0000000000000000e+00 4.5760444224903392e+02 4.1333714881340649e+02 2.9892109848097280e+03 0 0 0
194 2 12 0.0000000000000000e+00 4.3509750431316075e+02 3.7817961813674378e+02 2.9795028211823674e+03 0 0 0
13151 81 2 0.0000000000000000e+00 4.7556528230340626e+02 3.8178652211193952e+02 3.0036451859224012e+03 0 0 0
13191 81 18 0.0000000000000000e+00 4.3288512639328047e+02 3.9776570150614771e+02 3.0019233656191273e+03 0 0 0
10931 68 6 0.0000000000000000e+00 4.3090691313339840e+02 4.1404499551254821e+02 2.9839731690560807e+03 1 0 0
13999 86 2 0.0000000000000000e+00 4.6054618049278650e+02 4.1874612274107523e+02 3.0151860837783061e+03 0 0 0
13998 86 9 0.0000000000000000e+00 4.6344312238433946e+02 4.1679443734688562e+02 3.0170107176073266e+03 0 0 0
13190 81 17 0.0000000000000000e+00 4.3118590404701200e+02 3.9704561564894334e+02 3.0051338156817428e+03 0 0 0
13955 86 9 0.0000000000000000e+00 4.7898175448695588e+02 4.0179905790539465e+02 2.9954881655835088e+03 0 0 0
12077 75 2 0.0000000000000000e+00 4.5916614368802311e+02 4.0383465068390336e+02 2.9897066336493294e+03 0 0 0
11042 68 15 0.0000000000000000e+00 4.3695837050489342e+02 4.0361256685357199e+02 2.9852864522555242e+03 1 0 0
15119 93 2 0.0000000000000000e+00 4.8971649080186012e+02 4.1768253198575837e+02 3.0116641225544631e+03 0 0 0
656 5 17 0.0000000000000000e+00 5.0329110528543032e+02 3.8953114242872061e+02 2.9939702526993656e+03 -1 0 0
3098 20 1 0.0000000000000000e+00 5.0230971542650690e+02 4.1419503713365060e+02 2.9799845447585171e+03 0 0 0
8887 55 12 0.0000000000000000e+00 4.5607773768532286e+02 3.8508941730143641e+02 3.0064048665300384e+03 0 0 0
13968 86 9 0.0000000000000000e+00 4.5633336037985890e+02 3.9856853103010440e+02 3.0178442315189218e+03 0 0 0
13188 81 15 0.0000000000000000e+00 4.3228514964134780e+02 3.9635412894481840e+02 3.0100701803867919e+03 0 0 0
13168 81 2 0.0000000000000000e+00 4.4911080145846159e+02 4.0755752205423141e+02 2.9965425936280244e+03 0 0 0
13183 81 9 0.0000000000000000e+00 4.4167887770606683e+02 3.9883335067704570e+02 3.0142090608733224e+03 0 0 0
3903 24 2 0.0000000000000000e+00 4.5054744488052512e+02 4.0007268374652324e+02 3.0086716631821150e+03 0 0 0
8876 55 2 0.0000000000000000e+00 4.6421685652931535e+02 3.7957031724696384e+02 3.0158642760355419e+03 0 0 0
13160 81 15 0.0000000000000000e+00 4.6946081737994461e+02 3.9717768130704286e+02 3.0017461038406705e+03 0 0 0
14059 87 9 0.0000000000000000e+00 4.2501306290476333e+02 3.9202844736696534e+02 3.0016019973328398e+03 0 0 0
11813 73 15 0.0000000000000000e+00 4.7973485608077578e+02 4.1066483282631452e+02 2.9984689806171555e+03 0 0 0
15138 93 15 0.0000000000000000e+00 4.6042396571702534e+02 4.1516600887579301e+02 3.0025662341792095e+03 0 0 0
3222 20 18 0.0000000000000000e+00 4.8387493929956474e+02 3.9475725540449611e+02 3.0181221398284206e+03 0 0 0
13157 81 15 0.0000000000000000e+00 4.6890292469939271e+02 3.9052446507852767e+02 3.0070452817942783e+03 0 0 0
10923 68 6 0.0000000000000000e+00 4.3060296550562845e+02 4.1406503342846560e+02 2.9764065761550610e+03 1 0 0
10964 68 12 0.0000000000000000e+00 4.2491449498322731e+02 4.1126674844727040e+02 3.0172231320269316e+03 1 0 0
13888 86 9 0.0000000000000000e+00 5.0558682350478654e+02 4.0853750451320207e+02 3.0019433146667425e+03 0 0 0
14002 86 12 0.0000000000000000e+00 4.5623469000507089e+02 4.1114311157152548e+02 3.0168316324484394e+03 0 0 0
11027 68 18 0.0000000000000000e+00 4.2174280615433133e+02 3.9803209283488349e+02 2.9771496904629112e+03 1 0 0
11828 73 2 0.0000000000000000e+00 5.0245828922210109e+02 4.1248165841024172e+02 2.9971262183767917e+03 0 0 0
14011 86 2 0.0000000000000000e+00 4.4455964612499361e+02 4.0910834244803851e+02 3.0120493696539079e+03 0 0 0
14526 90 4 0.0000000000000000e+00 5.0709610509190946e+02 3.8366375428011929e+02 2.9829275371123153e+03 0 0 0
3910 24 9 0.0000000000000000e+00 4.5923962298513356e+02 3.8677341735247751e+02 2.9992677217323594e+03 0 0 0
13199 81 17 0.0000000000000000e+00 4.3793796845619323e+02 4.0610983253253289e+02 3.0024065114364043e+03 0 0 0
12091 75 15 0.0000000000000000e+00 4.6396011088568031e+02 3.9984682185040123e+02 2.9793759041822018e+03 0 0 0
13202 81 17 0.0000000000000000e+00 4.2881715209400187e+02 4.0834507037600520e+02 3.0027614200170233e+03 0 0 0
3210 20 9 0.0000000000000000e+00 4.9619463129843211e+02 3.8513673911708105e+02 3.0133023865386408e+03 0 0 0
13969 86 2 0.0000000000000000e+00 4.5916598762580276e+02 4.0130287488658166e+02 3.0183009347329485e+03 0 0 0
13937 86 2 0.0000000000000000e+00 4.8452990753847143e+02 3.7997519243244301e+02 3.0050534916297179e+03 0 0 0
14530 90 12 0.0000000000000000e+00 5.0280516715732836e+02 3.7662223763811124e+02 2.9914323318937591e+03 0 0 0
3905 24 2 0.0000000000000000e+00 4.4911292170691570e+02 3.9338444293278008e+02 3.0079688680715844e+03 0 0 0
11032 68 2 0.0000000000000000e+00 4.2567118676979601e+02 3.9177575810226301e+02 2.9812578947680595e+03 1 0 0
13949 86 12 0.0000000000000000e+00 4.7796752073245887e+02 3.8837109540915947e+02 2.9990335907266967e+03 0 0 0
168 2 7 -1.0000000000000000e+00 4.4537700543448432e+02 3.8053128488372050e+02 3.0203526153636576e+03 0 0 0
13911 86 15 0.0000000000000000e+00 5.0644087845297076e+02 3.8929766084256192e+02 2.9778221196732111e+03 0 0 0
13907 86 12 0.0000000000000000e+00 5.0510417962041419e+02 3.9294488917733747e+02 2.9882695041927368e+03 0 0 0
14015 86 12 0.0000000000000000e+00 4.3352668844572702e+02 4.1608124961275826e+02 3.0150161982856785e+03 0 0 0
13924 86 12 0.0000000000000000e+00 4.9739598997171839e+02 3.7904497809868519e+02 2.9824652115693339e+03 0 0 0
13919 86 4 0.0000000000000000e+00 4.9465299105271316e+02 3.9199905057875918e+02 2.9878834887252128e+03 0 0 0
184 2 18 0.0000000000000000e+00 4.4736510919336393e+02 3.7806157778395931e+02 2.9821084630689893e+03 0 0 0
3196 20 2 0.0000000000000000e+00 4.8172467145712966e+02 3.8716507587982983e+02 3.0031359562451462e+03 0 0 0
14524 90 9 0.0000000000000000e+00 5.0368351221050875e+02 3.7947881020822564e+02 2.9774943880648848e+03 0 0 0
10934 68 15 0.0000000000000000e+00 4.2496404134345346e+02 4.1276572201792231e+02 2.9902599479986447e+03 1 0 0
8883 55 9 0.0000000000000000e+00 4.5254828101874284e+02 3.8225153163245142e+02 3.0109659018870766e+03 0 0 0
661 5 12 0.0000000000000000e+00 4.9607297008341379e+02 4.0025750555290506e+02 3.0016190264153593e+03 -1 0 0
10973 68 12 0.0000000000000000e+00 4.2162024858030935e+02 3.9942414253208847e+02 2.9979192934330217e+03 1 0 0
179 2 6 0.0000000000000000e+00 4.4290233422498261e+02 3.8323302599462147e+02 2.9957980986106490e+03 0 0 0
13162 81 9 0.0000000000000000e+00 4.6323463179134063e+02 3.9289620250947598e+02 2.9981097086493255e+03 0 0 0
174 2 4 0.0000000000000000e+00 4.3352860231189806e+02 3.8234932706366840e+02 3.0050166772520770e+03 0 0 0
14003 86 15 0.0000000000000000e+00 4.5808354835707001e+02 4.0797727842095293e+02 3.0181224461064976e+03 0 0 0
11030 68 4 0.0000000000000000e+00 4.2121332520771284e+02 3.9389110112229122e+02 2.9838110541765814e+03 1 0 0
13863 86 12 0.0000000000000000e+00 5.0551739851466186e+02 4.1783376997247308e+02 3.0198535930530197e+03 0 0 0
10953 68 18 0.0000000000000000e+00 4.2774516118049326e+02 4.0616908515707217e+02 3.0088102345161101e+03 1 0 0
13957 86 12 0.0000000000000000e+00 4.7210911931374238e+02 4.0475706673063183e+02 2.9975380756675227e+03 0 0 0
11041 68 15 0.0000000000000000e+00 4.3739925172423744e+02 3.9909414843858769e+02 2.9836939652283781e+03 1 0 0
10954 68 9 0.0000000000000000e+00 4.2874102499779383e+02 4.0274217118123130e+02 3.0080171301770192e+03 1 0 0
10967 68 7 -1.0000000000000000e+00 4.2135790450548984e+02 4.0248514312129083e+02 3.0121991504882963e+03 1 0 0
11050 68 15 0.0000000000000000e+00 4.5268705744305106e+02 4.0189336557258508e+02 2.9881099731121171e+03 1 0 0
13905 86 9 0.0000000000000000e+00 5.0723444684242787e+02 3.9800855283316417e+02 2.9897403465764328e+03 0 0 0
16123 99 9 0.0000000000000000e+00 5.0960168214194982e+02 3.7752554477320041e+02 3.0031125830082065e+03 0 0 0
8881 55 2 0.0000000000000000e+00 4.5530847087142160e+02 3.8491784112968969e+02 3.0148070011651907e+03 0 0 0
14525 90 18 0.0000000000000000e+00 5.0571561243232094e+02 3.8036677801819678e+02 2.9811715155446113e+03 0 0 0
11814 73 4 0.0000000000000000e+00 4.7815025797326092e+02 4.1380854070478500e+02 2.9965398813443330e+03 0 0 0
13946 86 9 0.0000000000000000e+00 4.8581795824273325e+02 3.8497757300195747e+02 2.9937744307404773e+03 0 0 0
8891 55 15 0.0000000000000000e+00 4.5746574651989079e+02 3.9479938729721886e+02 3.0138461399876728e+03 0 0 0
3189 20 2 0.0000000000000000e+00 4.8940530986130290e+02 3.9565832689300777e+02 2.9859410552952281e+03 0 0 0
13065 81 9 0.0000000000000000e+00 4.7224491716356295e+02 3.7838563165597128e+02 3.0140341311255834e+03 0 0 0
13175 81 15 0.0000000000000000e+00 4.3858196576648299e+02 3.9372826897764162e+02 3.0034406139955222e+03 0 0 0
14062 87 15 0.0000000000000000e+00 4.3287049059189371e+02 3.8694594656514965e+02 2.9964200952965948e+03 0 0 0
10956 68 12 0.0000000000000000e+00 4.3527776671255907e+02 4.0429059346774767e+02 3.0090185888352667e+03 1 0 0
11803 73 2 0.0000000000000000e+00 4.7120533373473336e+02 4.1397926734078794e+02 2.9895633922427933e+03 0 0 0
14001 86 12 0.0000000000000000e+00 4.5551886760030669e+02 4.1410080127815775e+02 3.0148520619847682e+03 0 0 0
10926 68 7 -1.0000000000000000e+00 4.2561722329213143e+02 4.0956463822690529e+02 2.9772666184667150e+03 1 0 0
11044 68 2 0.0000000000000000e+00 4.4275105236721788e+02 4.0401114423463247e+02 2.9830093839219758e+03 1 0 0
662 5 6 0.0000000000000000e+00 4.9880214595581805e+02 4.0224954542525603e+02 3.0004840614446107e+03 -1 0 0
13978 86 2 0.0000000000000000e+00 4.7167190520412095e+02 4.1337503718593587e+02 3.0096254911238107e+03 0 0 0
11043 68 9 0.0000000000000000e+00 4.3980393492924776e+02 4.0639596890419261e+02 2.9831631263304225e+03 1 0 0
171 2 12 0.0000000000000000e+00 4.4078148678068931e+02 3.8391587184238062e+02 3.0119581261938856e+03 0 0 0
11824 73 12 0.0000000000000000e+00 4.9629268721425200e+02 4.2037478820486052e+02 2.9921018492600206e+03 0 0 0
13950 86 15 0.0000000000000000e+00 4.7592706836816882e+02 3.9033381696614367e+02 2.9981588237997166e+03 0 0 0
13192 81 18 0.0000000000000000e+00 4.3246339841168333e+02 3.9469308174141838e+02 2.9989734178535227e+03 0 0 0
11832 73 15 0.0000000000000000e+00 5.0478257098510960e+02 4.1350638106208248e+02 2.9886901615921361e+03 0 0 0
687 5 12 0.0000000000000000e+00 5.0451397440698940e+02 4.0840840089841686e+02 3.0157550981375521e+03 -1 0 0
11054 68 12 0.0000000000000000e+00 4.4436986360329706e+02 3.9930694414333090e+02 2.9789480717932306e+03 1 0 0
682 5 15 0.0000000000000000e+00 4.9410869839677889e+02 4.1361305470344280e+02 3.0076310872215572e+03 -1 0 0
3909 24 12 0.0000000000000000e+00 4.5494697240080745e+02 3.8936890872253997e+02 2.9985226296588703e+03 0 0 0
14057 87 45 0.0000000000000000e+00 4.2281472565129741e+02 3.8716201950765486e+02 3.0045657547495539e+03 0 0 0
10959 68 9 0.0000000000000000e+00 4.3074932114751203e+02 4.1322870523756092e+02 3.0107693274564404e+03 1 0 0
12085 75 12 0.0000000000000000e+00 4.5728433505070200e+02 4.1276954877851847e+02 2.9853048893127479e+03 0 0 0
10966 68 4 0.0000000000000000e+00 4.2208799557314637e+02 4.0615653348152824e+02 3.0134989537369070e+03 1 0 0
3200 20 12 0.0000000000000000e+00 4.8282030931422236e+02 3.8924520056525841e+02 3.0153718766088878e+03 0 0 0
681 5 15 0.0000000000000000e+00 4.9443827810954025e+02 4.0966229684054309e+02 3.0052492400934261e+03 -1 0 0
10951 68 15 0.0000000000000000e+00 4.2176664028347068e+02 4.0958011873641743e+02 3.0057539671867562e+03 1 0 0
15137 93 12 0.0000000000000000e+00 4.5686473790218713e+02 4.1617594321579793e+02 3.0037848266917008e+03 0 0 0
13177 81 2 0.0000000000000000e+00 4.3425495127164515e+02 3.8874587281274461e+02 3.0071239087171712e+03 0 0 0
3172 20 9 0.0000000000000000e+00 4.9659561777861535e+02 3.9242061515700431e+02 2.9764923819177197e+03 0 0 0
8878 55 2 0.0000000000000000e+00 4.6147099283237185e+02 3.8519177212514404e+02 3.0138998479003290e+03 0 0 0
674 5 2 0.0000000000000000e+00 4.9895152791943508e+02 4.0020375956223791e+02 2.9907572576585308e+03 -1 0 0
175 2 12 0.0000000000000000e+00 4.3479230214511068e+02 3.8005614296745313e+02 3.0029186387224249e+03 0 0 0
10939 68 18 0.0000000000000000e+00 4.2035110975317218e+02 4.1843115128150629e+02 2.9956677748717634e+03 1 0 0
193 2 15 0.0000000000000000e+00 4.3256074000523427e+02 3.8148746139513264e+02 2.9792124256672364e+03 0 0 0
13173 81 12 0.0000000000000000e+00 4.4117707819281736e+02 3.9914461331333939e+02 3.0067677680984370e+03 0 0 0
3211 20 2 0.0000000000000000e+00 4.9294805453595654e+02 3.8403369764148124e+02 3.0142856845027018e+03 0 0 0
3904 24 9 0.0000000000000000e+00 4.4856766831248990e+02 3.9705090246883759e+02 3.0096361261141856e+03 0 0 0
696 5 15 0.0000000000000000e+00 4.9537157826413795e+02 4.0535671983332048e+02 3.0113086589554482e+03 -1 0 0
14316 88 15 0.0000000000000000e+00 4.8357277935673523e+02 4.1964237196009668e+02 3.0210872443962021e+03 0 0 0
3194 20 9 0.0000000000000000e+00 4.8272898075583669e+02 3.9272366893479261e+02 2.9999459464980855e+03 0 0 0
3099 20 6 0.0000000000000000e+00 5.0263889772134519e+02 4.1286216176136872e+02 2.9833601374358791e+03 0 0 0
181 2 18 0.0000000000000000e+00 4.4126039776084622e+02 3.7993982190406450e+02 2.9902869902593175e+03 0 0 0
912 6 9 0.0000000000000000e+00 4.7173875802850790e+02 3.9442782644359073e+02 2.9773597076568635e+03 0 0 0
10961 68 2 0.0000000000000000e+00 4.2950650507349661e+02 4.0942529762723655e+02 3.0145755304391068e+03 1 0 0
12092 75 15 0.0000000000000000e+00 4.6487062766175109e+02 3.9703036951872792e+02 2.9767437473032323e+03 0 0 0
3212 20 15 0.0000000000000000e+00 4.9042104226383071e+02 3.8094404369999410e+02 3.0156700096304976e+03 0 0 0
13156 81 15 0.0000000000000000e+00 4.7036277256168847e+02 3.8709069533132083e+02 3.0081099220750766e+03 0 0 0
11833 73 9 0.0000000000000000e+00 5.0353482132775758e+02 4.1675944158587993e+02 2.9869516986499425e+03 0 0 0
3173 20 2 0.0000000000000000e+00 4.9535280673017093e+02 3.8989975216524124e+02 2.9789470450346676e+03 0 0 0
3175 20 4 0.0000000000000000e+00 4.9305445893081583e+02 3.8341655597806181e+02 2.9764577854877766e+03 0 0 0
186 2 12 0.0000000000000000e+00 4.4992360511602789e+02 3.8464585180205393e+02 2.9848712000101232e+03 0 0 0
16118 99 2 0.0000000000000000e+00 5.0601399367282056e+02 3.7698219265988519e+02 2.9965898289894112e+03 0 0 0
13967 86 15 0.0000000000000000e+00 4.5671096888084315e+02 4.0033378419678212e+02 3.0140173786015748e+03 0 0 0
177 2 9 0.0000000000000000e+00 4.4102530005902241e+02 3.8079965015923580e+02 3.0019469181660038e+03 0 0 0
13200 81 12 0.0000000000000000e+00 4.3620219606604894e+02 4.0957975171231340e+02 3.0030748275763840e+03 0 0 0
13179 81 12 0.0000000000000000e+00 4.3328918848392186e+02 3.8749119582278763e+02 3.0123835095475479e+03 0 0 0
173 2 6 0.0000000000000000e+00 4.3652771489361010e+02 3.8490492817659543e+02 3.0060471808917964e+03 0 0 0
13980 86 18 0.0000000000000000e+00 4.7359034050777723e+02 4.1279223773175295e+02 3.0150443805671894e+03 0 0 0
2461 16 6 0.0000000000000000e+00 4.4391181954791745e+02 4.1364632472737424e+02 2.9895444031124621e+03 0 0 0
16099 99 18 0.0000000000000000e+00 4.9487470766635050e+02 3.8005026622327341e+02 3.0202041158462689e+03 0 0 0
909 6 12 0.0000000000000000e+00 4.7730815020736736e+02 4.0076203333657196e+02 2.9834469933567339e+03 0 0 0
16103 99 15 0.0000000000000000e+00 5.0444160225979141e+02 3.8284015033106482e+02 3.0164698799323851e+03 0 0 0
693 5 9 0.0000000000000000e+00 4.9878527529677757e+02 3.9913770040569904e+02 3.0112283347972252e+03 -1 0 0
14054 87 12 0.0000000000000000e+00 4.2544750896319272e+02 3.8138719354077432e+02 2.9999066989012385e+03 0 0 0
13953 86 18 0.0000000000000000e+00 4.7874471202697777e+02 3.9588457995335597e+02 2.9919384813343590e+03 0 0 0
689 5 15 0.0000000000000000e+00 5.0922576042346896e+02 4.0303327842851314e+02 3.0146569769622993e+03 -1 0 0
13170 81 9 0.0000000000000000e+00 4.4357221276331813e+02 4.0428790756231501e+02 2.9994528421056334e+03 0 0 0
13186 81 12 0.0000000000000000e+00 4.3450096239898528e+02 4.0136672586158477e+02 3.0158815320143131e+03 0 0 0
13889 86 2 0.0000000000000000e+00 5.0663944855132729e+02 4.1205581411383946e+02 2.9998871411517371e+03 0 0 0
898 6 15 0.0000000000000000e+00 4.6720015532623734e+02 3.8414980613848167e+02 2.9818789252890178e+03 0 0 0
12074 75 12 0.0000000000000000e+00 4.5515161379381937e+02 3.9666606884968957e+02 2.9830363563412470e+03 0 0 0
14008 86 12 0.0000000000000000e+00 4.4319091968002573e+02 4.0560003128250207e+02 3.0175754496766476e+03 0 0 0
13947 86 2 0.0000000000000000e+00 4.8284593623651256e+02 3.8748513916644231e+02 2.9954473363784136e+03 0 0 0
13194 81 2 0.0000000000000000e+00 4.3064948986526002e+02 3.9561721481350895e+02 2.9933915694443472e+03 0 0 0
900 6 12 0.0000000000000000e+00 4.7376892249214512e+02 3.8417217987280191e+02 2.9835399487281670e+03 0 0 0
15144 93 15 0.0000000000000000e+00 4.4976983928205800e+02 4.1738192749202074e+02 3.0012653163748278e+03 0 0 0
13187 81 12 0.0000000000000000e+00 4.3289650662773619e+02 3.9943178130364578e+02 3.0122189671331848e+03 0 0 0
675 5 12 0.0000000000000000e+00 4.9800948144661720e+02 3.9682533404802280e+02 2.9912839068988392e+03 -1 0 0
13979 86 12 0.0000000000000000e+00 4.6966954426218001e+02 4.1156801768185517e+02 3.0125024614228250e+03 0 0 0
13916 86 15 0.0000000000000000e+00 5.0177995294014994e+02 3.8664974677392570e+02 2.9825640464550756e+03 0 0 0
581 4 2 0.0000000000000000e+00 4.7239029272638743e+02 3.7737390472603829e+02 2.9768128382623240e+03 0 0 0
11045 68 12 0.0000000000000000e+00 4.4435936667874836e+02 4.0222279392928988e+02 2.9859748020941656e+03 1 0 0
12073 75 4 0.0000000000000000e+00 4.5474781369088851e+02 3.9250743639798344e+02 2.9824469357959747e+03 0 0 0
13964 86 4 0.0000000000000000e+00 4.5478527127798748e+02 3.9701904548283068e+02 3.0053912512481825e+03 0 0 0
14325 88 2 0.0000000000000000e+00 4.8833813866925414e+02 4.1324964759461585e+02 2.9989384300712004e+03 0 0 0
676 5 2 0.0000000000000000e+00 4.9518870934264424e+02 3.9987984722192886e+02 2.9932007590898829e+03 -1 0 0
15128 93 12 0.0000000000000000e+00 4.6924382752169413e+02 4.1922179472009253e+02 3.0165959759335924e+03 0 0 0
11048 68 15 0.0000000000000000e+00 4.5166965317502434e+02 4.0612757079645326e+02 2.9918920096809507e+03 1 0 0
14055 87 15 0.0000000000000000e+00 4.2631916940843820e+02 3.8414565710556712e+02 3.0028110881145758e+03 0 0 0
13163 81 2 0.0000000000000000e+00 4.6033396065412779e+02 3.9479433223819194e+02 2.9964305387439699e+03 0 0 0
13909 86 15 0.0000000000000000e+00 5.0923264474271048e+02 3.9077033898230451e+02 2.9824180259447603e+03 0 0 0
15121 93 18 0.0000000000000000e+00 4.8275994848295500e+02 4.2006697741187025e+02 3.0132491176060907e+03 0 0 0
12067 75 7 -1.0000000000000000e+00 4.5283132405853490e+02 3.8171663260116173e+02 2.9924948631246425e+03 0 0 0
13945 86 15 0.0000000000000000e+00 4.8389064224741742e+02 3.8174204112584988e+02 2.9939033107907512e+03 0 0 0
3197 20 9 0.0000000000000000e+00 4.8161469588556832e+02 3.8496895599174212e+02 3.0057328269967902e+03 0 0 0
13951 86 15 0.0000000000000000e+00 4.7527553678236774e+02 3.9339858783151846e+02 2.9956708317346984e+03 0 0 0
14321 88 12 0.0000000000000000e+00 4.8548960406780157e+02 4.1210876260195579e+02 3.0108361376286975e+03 0 0 0
11817 73 9 0.0000000000000000e+00 4.8340715752769228e+02 4.1580595433099188e+02 2.9870309572783417e+03 0 0 0
13167 81 15 0.0000000000000000e+00 4.5187611401895515e+02 4.0442474566708006e+02 2.9965367873420550e+03 0 0 0
15139 93 9 0.0000000000000000e+00 4.6218249983218271e+02 4.1162512043773341e+02 3.0012416649725174e+03 0 0 0
3100 20 15 0.0000000000000000e+00 5.0573933858876319e+02 4.1206275830284591e+02 2.9833241777842036e+03 0 0 0
13925 86 15 0.0000000000000000e+00 4.9563819035053939e+02 3.7846242763451977e+02 2.9858692110280786e+03 0 0 0
13169 81 15 0.0000000000000000e+00 4.4505026105231974e+02 4.0625946201405748e+02 2.9965353877187913e+03 0 0 0
14322 88 12 0.0000000000000000e+00 4.8767504055071322e+02 4.1072327684972799e+02 3.0080213143878641e+03 0 0 0
15142 93 12 0.0000000000000000e+00 4.5173357089600535e+02 4.1141790024639334e+02 3.0011243012758227e+03 0 0 0
11801 73 2 0.0000000000000000e+00 4.6550023509216209e+02 4.1108825947642885e+02 2.9897403230245368e+03 0 0 0
13193 81 12 0.0000000000000000e+00 4.3040850770033921e+02 3.9362400129260527e+02 2.9965531928911914e+03 0 0 0
10958 68 15 0.0000000000000000e+00 4.3316211901483643e+02 4.1059202334187199e+02 3.0102318139226368e+03 1 0 0
13189 81 9 0.0000000000000000e+00 4.3103101208268521e+02 3.9460593859860711e+02 3.0073049347368155e+03 0 0 0
690 5 9 0.0000000000000000e+00 5.0837719808793514e+02 4.0072522188951041e+02 3.0112474910947562e+03 -1 0 0
12075 75 15 0.0000000000000000e+00 4.5772674657622957e+02 3.9788440109361233e+02 2.9857132242874736e+03 0 0 0
3188 20 9 0.0000000000000000e+00 4.9061427307746038e+02 3.9576584486004526e+02 2.9827144619911210e+03 0 0 0
11806 73 15 0.0000000000000000e+00 4.7678703131227820e+02 4.1043783157351419e+02 2.9919135750712881e+03 0 0 0
14326 88 12 0.0000000000000000e+00 4.8517499928525996e+02 4.1596500251280020e+02 2.9976238508681467e+03 0 0 0
3906 24 12 0.0000000000000000e+00 4.4808430324172923e+02 3.9214950540360149e+02 3.0046391108002326e+03 0 0 0
13902 86 4 0.0000000000000000e+00 5.0801880926574330e+02 4.0178042768526188e+02 2.9816616149948209e+03 0 0 0
13164 81 12 0.0000000000000000e+00 4.5736132243537804e+02 3.9673143641936906e+02 2.9987163311039685e+03 0 0 0
10933 68 12 0.0000000000000000e+00 4.2662307823776860e+02 4.1045146535480131e+02 2.9882200015195076e+03 1 0 0
11830 73 12 0.0000000000000000e+00 5.0574575180046708e+02 4.0737030556653724e+02 2.9917806438083148e+03 0 0 0
13159 81 15 0.0000000000000000e+00 4.7020870923821877e+02 3.9557592430132149e+02 3.0052560080052540e+03 0 0 0
4635 29 4 0.0000000000000000e+00 4.3102376121400505e+02 4.1676187567187748e+02 2.9966057705359972e+03 0 0 0
904 6 15 0.0000000000000000e+00 4.8315259263326078e+02 3.8828468740463438e+02 2.9844619405721701e+03 0 0 0
8879 55 15 0.0000000000000000e+00 4.5968716487609868e+02 3.8504375333516180e+02 3.0170008433464832e+03 0 0 0
11816 73 49 0.0000000000000000e+00 4.8166632591274225e+02 4.1586581620075992e+02 2.9906484613144044e+03 0 0 0
13203 81 15 0.0000000000000000e+00 4.2630008944953539e+02 4.0857391628017945e+02 3.0001689682627070e+03 0 0 0
673 5 18 0.0000000000000000e+00 4.9955940372885476e+02 4.0190026557727509e+02 2.9870572759389938e+03 -1 0 0
13904 86 2 0.0000000000000000e+00 5.0613718442633296e+02 4.0146959658857890e+02 2.9885397353205794e+03 0 0 0
13997 86 15 0.0000000000000000e+00 4.6369036111038162e+02 4.1340888375614861e+02 3.0181597195682207e+03 0 0 0
12070 75 12 0.0000000000000000e+00 4.5168259084250570e+02 3.9091155508735505e+02 2.9902705434042809e+03 0 0 0
11800 73 4 0.0000000000000000e+00 4.6431939128520298e+02 4.1386633585188588e+02 2.9917369285836080e+03 0 0 0
13944 86 15 0.0000000000000000e+00 4.8618369507706660e+02 3.7837400879427935e+02 2.9934633592598589e+03 0 0 0
11809 73 12 0.0000000000000000e+00 4.8675483004696179e+02 4.0692485094291595e+02 2.9895196896608627e+03 0 0 0
13153 81 9 0.0000000000000000e+00 4.7783733628328548e+02 3.8128232703789087e+02 3.0105164242538935e+03 0 0 0
11812 73 2 0.0000000000000000e+00 4.8289081164359374e+02 4.1011493864652738e+02 2.9967536750378963e+03 0 0 0
901 6 15 0.0000000000000000e+00 4.7665575443324707e+02 3.8169787700574801e+02 2.9812092057365621e+03 0 0 0
13970 86 15 0.0000000000000000e+00 4.6128599052826627e+02 4.0323592349657679e+02 3.0154866536018276e+03 0 0 0
13930 86 9 0.0000000000000000e+00 4.9139636594960564e+02 3.7608681274400010e+02 2.9993590340330957e+03 0 0 0
13178 81 2 0.0000000000000000e+00 4.3098310388781084e+02 3.8836882648168393e+02 3.0092768349067546e+03 0 0 0
13928 86 12 0.0000000000000000e+00 4.9698733146238931e+02 3.7606510665595346e+02 2.9950377888270664e+03 0 0 0
13958 86 12 0.0000000000000000e+00 4.6901269893549181e+02 4.0600078665439287e+02 2.9990541930944946e+03 0 0 0
13971 86 15 0.0000000000000000e+00 4.6168182731796946e+02 4.0518679294313301e+02 3.0124369303178264e+03 0 0 0
11028 68 15 0.0000000000000000e+00 4.2163519357522921e+02 3.9525929910904250e+02 2.9790578068190480e+03 1 0 0
11053 68 12 0.0000000000000000e+00 4.4684136221022817e+02 3.9874552002750090e+02 2.9816159958858188e+03 1 0 0
14529 90 2 0.0000000000000000e+00 5.0582946222422999e+02 3.8006060931921934e+02 2.9915559063105870e+03 0 0 0
11040 68 15 0.0000000000000000e+00 4.3503000223023616e+02 3.9762604713086301e+02 2.9810621706581323e+03 1 0 0