LAMMPS data file via write_data, version 2 Jun 2020, timestep = 20000

16300 atoms
54 atom types
16200 bonds
2 bond types
2600 angles
2 angle types

4.1500000000000000e+02 6.1600000000000000e+02 xlo xhi
3.7100000000000000e+02 5.7200000000000000e+02 ylo yhi
2.9690000000000000e+03 3.1700000000000000e+03 zlo zhi

Masses

1 131.2
2 57.05
3 128.2
4 101.1
5 156.2
6 71.08
7 115.1
8 129.1
9 163.2
10 99.07
11 113.2
12 128.1
13 186.2
14 147.2
15 87.08
16 137.1
17 114.1
18 97.12
19 103.1
20 113.2
21 131.2
22 57.05
23 128.2
24 101.1
25 156.2
26 71.08
27 115.1
28 129.1
29 163.2
30 99.07
31 113.2
32 128.1
33 186.2
34 147.2
35 87.08
36 137.1
37 114.1
38 97.12
39 103.1
40 113.2
41 329.2
42 305.2
43 345.2
44 306.2
45 87.08
46 107.44
47 87.08
48 107.48
49 57.05
50 86.92
51 86.92
52 86.92
53 107.44
54 107.48

Bond Coeffs # harmonic

1 2.39 3.81
2 2.39 5

Angle Coeffs # harmonic

1 0.0001 180
2 5 180

Atoms # full

13906 86 2 0.0000000000000000e+00 5.1120317830872102e+02 4.1579308860174365e+02 2.9718282410553111e+03 0 0 0
11775 73 45 0.0000000000000000e+00 4.1799082131155740e+02 4.1531054383312539e+02 2.9769854949472451e+03 0 0 0
3886 24 2 0.0000000000000000e+00 4.2799651280177818e+02 4.1134762107842874e+02 2.9977558509282539e+03 0 0 0
4460 28 2 0.0000000000000000e+00 4.7159138071459927e+02 3.9749986187449946e+02 3.0035394726688833e+03 0 0 0
14102 87 15 0.0000000000000000e+00 4.3757353162528989e+02 3.7290096352714187e+02 2.9844901659094962e+03 0 0 0
176 2 15 0.0000000000000000e+00 4.4407696541618668e+02 3.7698173561888910e+02 2.9744884381622328e+03 0 0 0
13367 83 1 0.0000000000000000e+00 5.0778031576490207e+02 3.9385198788080714e+02 2.9868000658909664e+03 0 0 0
921 6 18 0.0000000000000000e+00 4.6034719315437263e+02 4.1051637708382293e+02 2.9700775008574296e+03 0 0 0
4456 28 9 0.0000000000000000e+00 4.6223634648563666e+02 3.9640432819133940e+02 2.9994936571742487e+03 0 0 0
165 2 6 0.0000000000000000e+00 4.3447534757346688e+02 3.9806381507143317e+02 2.9847898182630111e+03 0 0 0
3225 20 2 0.0000000000000000e+00 5.0008243324587306e+02 3.8605941050358939e+02 2.9992115447972560e+03 0 0 0
13923 86 4 0.0000000000000000e+00 4.9429103380095086e+02 3.9269995994350086e+02 2.9843841432254744e+03 0 0 0
11834 73 18 0.0000000000000000e+00 4.8963901075834696e+02 4.0576780287395320e+02 2.9934368916259814e+03 0 0 0
13929 86 2 0.0000000000000000e+00 4.8115348598065646e+02 3.8593605057035131e+02 2.9961400637529000e+03 0 0 0
3817 24 4 0.0000000000000000e+00 4.5287635367107259e+02 4.1371353649617271e+02 3.0069691278059076e+03 0 0 0
14800 91 9 0.0000000000000000e+00 4.6318179960258175e+02 4.1624940994782907e+02 2.9875059811569631e+03 0 0 0
14058 87 2 0.0000000000000000e+00 4.5819977331465287e+02 3.7143179842502514e+02 3.0023123222016088e+03 0 0 0
11827 73 9 0.0000000000000000e+00 4.8597943747833438e+02 4.0202542393327923e+02 3.0093707955841182e+03 0 0 0
930 6 15 0.0000000000000000e+00 4.5285192426624610e+02 4.0837024954901779e+02 2.9784614059155897e+03 0 0 0
11083 68 17 0.0000000000000000e+00 4.3166110006183271e+02 4.0744452616146378e+02 2.9701126768483864e+03 1 0 0
3818 24 12 0.0000000000000000e+00 4.5385001318815387e+02 4.1703980653031704e+02 3.0088646002492901e+03 0 0 0
11776 73 2 0.0000000000000000e+00 4.1872934350067629e+02 4.1159947510706712e+02 2.9792265259505939e+03 0 0 0
14831 91 9 0.0000000000000000e+00 4.7567251099200871e+02 3.8464686227741868e+02 2.9783364070270422e+03 0 0 0
14807 91 2 0.0000000000000000e+00 4.5789216127100133e+02 3.9809588975825994e+02 2.9918753426758230e+03 0 0 0
14811 91 12 0.0000000000000000e+00 4.5445529118584398e+02 3.9166700638960674e+02 2.9871310146699466e+03 0 0 0
14064 87 7 -1.0000000000000000e+00 4.4887245658440929e+02 3.8048123956110078e+02 2.9931749503805777e+03 0 0 0
14033 87 2 0.0000000000000000e+00 4.7116213667555888e+02 3.8823910052772419e+02 2.9934551522245374e+03 0 0 0
14816 91 12 0.0000000000000000e+00 4.6247200951893120e+02 3.8820352914848792e+02 2.9825516680143410e+03 0 0 0
3234 20 2 0.0000000000000000e+00 5.1426257444842020e+02 3.9210527946668446e+02 2.9936397936645881e+03 0 0 0
4142 26 2 0.0000000000000000e+00 5.0387609186020939e+02 3.9520731832287566e+02 2.9720738495687533e+03 0 0 0
2505 16 12 0.0000000000000000e+00 4.2700988845856892e+02 4.1873202373342593e+02 2.9734704754567274e+03 0 0 0
3906 24 12 0.0000000000000000e+00 4.1664314638914897e+02 4.1366000669755914e+02 3.0122346152629393e+03 0 0 0
4514 28 9 0.0000000000000000e+00 4.1779946552512575e+02 3.9745814730675841e+02 3.0133924552530343e+03 0 0 0
14562 90 9 0.0000000000000000e+00 5.0140031159008367e+02 3.7797386683364988e+02 2.9723181126568479e+03 0 0 0
14068 87 9 0.0000000000000000e+00 4.3823618009162345e+02 3.8184257642311286e+02 2.9848499551350278e+03 0 0 0
9752 60 15 0.0000000000000000e+00 4.4663617045493692e+02 3.9231713477629228e+02 3.0150537011902388e+03 0 0 0
4145 26 15 0.0000000000000000e+00 5.0096202987388637e+02 4.0282350471854545e+02 2.9697546586737526e+03 0 0 0
14086 87 4 0.0000000000000000e+00 4.2920563787269094e+02 3.7203369825646519e+02 2.9922894311439668e+03 0 0 0
14832 91 17 0.0000000000000000e+00 4.7286801003630018e+02 3.8196475819051113e+02 2.9796376793449117e+03 0 0 0
13397 83 12 0.0000000000000000e+00 4.9740949409650881e+02 3.8694913180800137e+02 3.0108933290490791e+03 0 0 0
917 6 12 0.0000000000000000e+00 4.5125996529267314e+02 4.0291531772820071e+02 2.9699093311392171e+03 0 0 0
14044 87 15 0.0000000000000000e+00 4.6216669423644220e+02 3.7777007689553892e+02 2.9822882108636022e+03 0 0 0
14032 87 9 0.0000000000000000e+00 4.6841781615692429e+02 3.8745500104139757e+02 2.9906368953311553e+03 0 0 0
14083 87 2 0.0000000000000000e+00 4.2630119814727919e+02 3.7925228853125986e+02 2.9850797541301599e+03 0 0 0
3813 24 4 0.0000000000000000e+00 4.5426947488538565e+02 4.1988959651285796e+02 2.9979559377858409e+03 0 0 0
14804 91 18 0.0000000000000000e+00 4.6481596812242230e+02 4.0301653026650320e+02 2.9881568379686350e+03 0 0 0
14549 90 15 0.0000000000000000e+00 5.1197879314136776e+02 4.0418484517419171e+02 2.9713268901564597e+03 0 0 0
674 5 2 0.0000000000000000e+00 4.8709979956887565e+02 4.1001310510536064e+02 3.0044891631494270e+03 -1 0 0
13405 83 45 0.0000000000000000e+00 4.9639781501838098e+02 3.7514775894156429e+02 3.0091076648226140e+03 0 0 0
4481 28 49 0.0000000000000000e+00 4.4761034803152597e+02 3.9257929366844638e+02 3.0085381526258166e+03 0 0 0
3895 24 12 0.0000000000000000e+00 4.3616692317748988e+02 4.1538660344339365e+02 3.0014735183332759e+03 0 0 0
4480 28 2 0.0000000000000000e+00 4.5117963117962307e+02 3.9255365813334828e+02 3.0100995888769139e+03 0 0 0
4479 28 4 0.0000000000000000e+00 4.5300307295692551e+02 3.8893604803078375e+02 3.0100345976666727e+03 0 0 0
4475 28 2 0.0000000000000000e+00 4.5935076982746790e+02 3.8223349075336353e+02 3.0017520204770562e+03 0 0 0
4477 28 2 0.0000000000000000e+00 4.5575354134378205e+02 3.8609580307377843e+02 3.0050938669776965e+03 0 0 0
11789 73 15 0.0000000000000000e+00 4.3122463619527508e+02 4.0238279703081548e+02 3.0065625864815206e+03 0 0 0
13928 86 12 0.0000000000000000e+00 4.8393008492771321e+02 3.8531476190387730e+02 2.9937025527560058e+03 0 0 0
9756 60 12 0.0000000000000000e+00 4.3893618501682175e+02 3.8492759799288206e+02 3.0161838257317713e+03 0 0 0
4478 28 15 0.0000000000000000e+00 4.5458104472435224e+02 3.8961827246298418e+02 3.0064009476213214e+03 0 0 0
14820 91 17 0.0000000000000000e+00 4.6885133690221630e+02 3.9673615693767726e+02 2.9834382550494956e+03 0 0 0
3233 20 9 0.0000000000000000e+00 5.1452418230165040e+02 3.8784386853286099e+02 2.9944772133772790e+03 0 0 0
14818 91 15 0.0000000000000000e+00 4.6705263239745148e+02 3.9255026575976410e+02 2.9860717829327682e+03 0 0 0
14081 87 17 0.0000000000000000e+00 4.1904196508947513e+02 3.7895336345436249e+02 2.9840777307400904e+03 0 0 0
3181 20 15 0.0000000000000000e+00 4.7156333769552947e+02 4.2122902354414214e+02 2.9885265029659677e+03 0 0 0
3219 20 9 0.0000000000000000e+00 4.9258058777406194e+02 3.9704986455088516e+02 2.9933381109701363e+03 0 0 0
3209 20 15 0.0000000000000000e+00 4.8992178814611214e+02 3.8453716834088937e+02 2.9807887239076631e+03 0 0 0
4476 28 9 0.0000000000000000e+00 4.5706521283739949e+02 3.8543902543702922e+02 3.0015460405944732e+03 0 0 0
4497 28 15 0.0000000000000000e+00 4.2763825404493514e+02 3.9383131506798969e+02 3.0001146951241385e+03 0 0 0
168 2 7 -1.0000000000000000e+00 4.3358725112756269e+02 3.9747081799605076e+02 2.9764487049544255e+03 0 0 0
3207 20 15 0.0000000000000000e+00 4.8889602054325354e+02 3.8930078900211146e+02 2.9750308363900772e+03 0 0 0
678 5 15 0.0000000000000000e+00 4.9974371761728713e+02 4.1543661954372897e+02 3.0024502214156232e+03 -1 0 0
4491 28 15 0.0000000000000000e+00 4.2916583907436353e+02 3.8845286287120763e+02 2.9973234585718219e+03 0 0 0
4504 28 12 0.0000000000000000e+00 4.1850065151656253e+02 4.0625266896484339e+02 2.9911825051337050e+03 0 0 0
14048 87 15 0.0000000000000000e+00 4.5683692239494889e+02 3.7105348978837770e+02 2.9835297473984033e+03 0 0 0
14027 87 12 0.0000000000000000e+00 4.5692873881826944e+02 3.8947786847500191e+02 2.9952556574987193e+03 0 0 0
13907 86 12 0.0000000000000000e+00 5.0655688098988634e+02 4.1550858150322591e+02 2.9710228242750545e+03 0 0 0
14810 91 12 0.0000000000000000e+00 4.5242534911270047e+02 3.9292622779213912e+02 2.9892080508395679e+03 0 0 0
14079 87 15 0.0000000000000000e+00 4.1654782770650581e+02 3.7554818028226833e+02 2.9878847126226456e+03 0 0 0
3816 24 2 0.0000000000000000e+00 4.4904890461143560e+02 4.1536498522022578e+02 3.0060753906878113e+03 0 0 0
13898 86 12 0.0000000000000000e+00 5.1291538581411419e+02 4.1719812222119998e+02 2.9805639711474760e+03 0 0 0
4141 26 9 0.0000000000000000e+00 5.0742100845332709e+02 3.9254036907269045e+02 2.9725791312896654e+03 0 0 0
11779 73 12 0.0000000000000000e+00 4.2622098741825528e+02 4.1505166051464857e+02 2.9840174665149298e+03 0 0 0
3891 24 15 0.0000000000000000e+00 4.3017593280058588e+02 4.1156503786185010e+02 3.0045715467068762e+03 0 0 0
14803 91 12 0.0000000000000000e+00 4.6616097702525099e+02 4.0632873614628477e+02 2.9856344366650869e+03 0 0 0
4482 28 9 0.0000000000000000e+00 4.4492117709366431e+02 3.9522129344889970e+02 3.0078016304833172e+03 0 0 0
4453 28 12 0.0000000000000000e+00 4.6212461284894499e+02 3.9700262691042866e+02 3.0089318616976225e+03 0 0 0
14550 90 12 0.0000000000000000e+00 5.1264350676526237e+02 4.0057287695425163e+02 2.9720972170486602e+03 0 0 0
4457 28 15 0.0000000000000000e+00 4.6510551325430430e+02 3.9514296263901133e+02 2.9978065887852554e+03 0 0 0
4454 28 15 0.0000000000000000e+00 4.6464606615851261e+02 3.9726301608996431e+02 3.0057259959316348e+03 0 0 0
4455 28 15 0.0000000000000000e+00 4.6455814232272530e+02 3.9778709305351396e+02 3.0020952331274052e+03 0 0 0
4458 28 47 0.0000000000000000e+00 4.6900072304514612e+02 3.9520715098662470e+02 2.9959417035561642e+03 0 0 0
4450 28 2 0.0000000000000000e+00 4.5675089812940490e+02 3.8955611484317359e+02 3.0144337058847982e+03 0 0 0
4451 28 9 0.0000000000000000e+00 4.5885890777052003e+02 3.9308259757492658e+02 3.0131202994981422e+03 0 0 0
4452 28 2 0.0000000000000000e+00 4.6201595102614914e+02 3.9386211346712059e+02 3.0110991930108630e+03 0 0 0
4449 28 15 0.0000000000000000e+00 4.5489651572527583e+02 3.8688316572690673e+02 3.0167384160074544e+03 0 0 0
4483 28 2 0.0000000000000000e+00 4.4463214616529467e+02 3.9339296866937542e+02 3.0038908452010296e+03 0 0 0
688 5 12 0.0000000000000000e+00 5.1357129028885311e+02 4.1625402418866292e+02 2.9909836359455758e+03 -1 0 0
4459 28 9 0.0000000000000000e+00 4.7053546889873331e+02 3.9775160104945792e+02 2.9992741104159209e+03 0 0 0
4500 28 2 0.0000000000000000e+00 4.2280095740089467e+02 3.9621059948858112e+02 2.9953361476366858e+03 0 0 0
11737 73 1 0.0000000000000000e+00 4.2738719961280958e+02 3.9221808196185447e+02 2.9918402991814819e+03 0 0 0
4506 28 6 0.0000000000000000e+00 4.1586777980887962e+02 4.0018147559674924e+02 2.9928744971398460e+03 0 0 0
169 2 9 0.0000000000000000e+00 4.3462391206312140e+02 3.9364204992091197e+02 2.9752735046351986e+03 0 0 0
14036 87 18 0.0000000000000000e+00 4.7560242343421038e+02 3.7930136060763755e+02 2.9957574154139534e+03 0 0 0
677 5 9 0.0000000000000000e+00 4.9666921151577691e+02 4.1428692948322555e+02 3.0046926116242917e+03 -1 0 0
14066 87 15 0.0000000000000000e+00 4.4416755386679739e+02 3.7924285432932919e+02 2.9875133068173732e+03 0 0 0
11798 73 12 0.0000000000000000e+00 4.5543692301606507e+02 4.0582146056422874e+02 3.0142826210020135e+03 0 0 0
14051 87 9 0.0000000000000000e+00 4.5188965162755807e+02 3.7211069991381669e+02 2.9879000324491640e+03 0 0 0
174 2 4 0.0000000000000000e+00 4.3948547808217626e+02 3.8090747219576303e+02 2.9735369680331587e+03 0 0 0
9675 60 9 0.0000000000000000e+00 4.7241073215258416e+02 3.7374390631905868e+02 3.0140226471938759e+03 0 0 0
14099 87 9 0.0000000000000000e+00 4.2922515350535008e+02 3.7282466514414244e+02 2.9802220161517243e+03 0 0 0
14037 87 4 0.0000000000000000e+00 4.7763263919217218e+02 3.7662312915348508e+02 2.9940205791913681e+03 0 0 0
11742 73 9 0.0000000000000000e+00 4.1995366340542188e+02 4.0313941012095808e+02 2.9825756160642131e+03 0 0 0
11797 73 15 0.0000000000000000e+00 4.5332831610489774e+02 4.0886994277443404e+02 3.0144375142438716e+03 0 0 0
11796 73 12 0.0000000000000000e+00 4.5029879450558383e+02 4.0916093004804588e+02 3.0129377846329967e+03 0 0 0
14047 87 15 0.0000000000000000e+00 4.6104662649096082e+02 3.7193748931396556e+02 2.9835312632749255e+03 0 0 0
14343 88 17 0.0000000000000000e+00 4.8738354677500683e+02 4.1882972919309202e+02 3.0048910442493234e+03 0 0 0
4463 28 12 0.0000000000000000e+00 4.6846003721095315e+02 3.9329027791200383e+02 3.0079004543538640e+03 0 0 0
13407 83 9 0.0000000000000000e+00 4.9917657219885501e+02 3.8078408605826388e+02 3.0091983125729566e+03 0 0 0
2509 16 4 0.0000000000000000e+00 4.4141192953544117e+02 4.2101749932531482e+02 2.9716229951759606e+03 0 0 0
3809 24 12 0.0000000000000000e+00 4.5335018629631207e+02 4.1205786615765641e+02 3.0012654499866762e+03 0 0 0
4464 28 17 0.0000000000000000e+00 4.6598799786733980e+02 3.9023123616590340e+02 3.0075749192954318e+03 0 0 0
13915 86 12 0.0000000000000000e+00 4.9475964803071503e+02 4.1090018743666292e+02 2.9731871926541380e+03 0 0 0
13905 86 9 0.0000000000000000e+00 5.1145943190782214e+02 4.1431960078639815e+02 2.9754078352780830e+03 0 0 0
3208 20 2 0.0000000000000000e+00 4.8816985760430140e+02 3.8652857073440890e+02 2.9779079961138195e+03 0 0 0
14082 87 4 0.0000000000000000e+00 4.2291244375359935e+02 3.7959905221726655e+02 2.9846775390619487e+03 0 0 0
14802 91 12 0.0000000000000000e+00 4.6509253602185430e+02 4.0985316926829671e+02 2.9847500459310281e+03 0 0 0
14073 87 9 0.0000000000000000e+00 4.2438019587460150e+02 3.8822519797388156e+02 2.9829930441014621e+03 0 0 0
13382 83 6 0.0000000000000000e+00 5.0892501768568519e+02 4.0400989855013961e+02 3.0112701284379987e+03 0 0 0
11844 73 15 0.0000000000000000e+00 4.8401788834917505e+02 4.1412964634206634e+02 2.9761177860211551e+03 0 0 0
13935 86 49 0.0000000000000000e+00 4.8912831287673077e+02 3.9266531470280910e+02 3.0101943333583563e+03 0 0 0
11815 73 2 0.0000000000000000e+00 4.7743773107226633e+02 3.9131786639675119e+02 3.0161071767426929e+03 0 0 0
3902 24 12 0.0000000000000000e+00 4.1687730843773534e+02 4.2052571022658992e+02 3.0118533796426896e+03 0 0 0
3887 24 2 0.0000000000000000e+00 4.2442872351180722e+02 4.1072115031029813e+02 2.9992366326358542e+03 0 0 0
13914 86 2 0.0000000000000000e+00 4.9351111430886903e+02 4.0803421137332930e+02 2.9712679904722454e+03 0 0 0
14069 87 2 0.0000000000000000e+00 4.3440742114902059e+02 3.8312575550136785e+02 2.9832686346982905e+03 0 0 0
683 5 12 0.0000000000000000e+00 5.0747553948906176e+02 4.0749892976540866e+02 2.9989282609058619e+03 -1 0 0
4472 28 4 0.0000000000000000e+00 4.6437141264090315e+02 3.7962940081679210e+02 3.0027941358624194e+03 0 0 0
13377 83 4 0.0000000000000000e+00 4.9669420073980297e+02 4.0489689826622134e+02 3.0111245170644070e+03 0 0 0
3810 24 15 0.0000000000000000e+00 4.5644924720518640e+02 4.1367998880711781e+02 2.9991383309207436e+03 0 0 0
9766 60 9 0.0000000000000000e+00 4.2591083820917021e+02 3.8191244442782562e+02 3.0022914025148084e+03 0 0 0
2506 16 15 0.0000000000000000e+00 4.2996303820639378e+02 4.2120206652364766e+02 2.9742064011955904e+03 0 0 0
4485 28 15 0.0000000000000000e+00 4.3867957058586103e+02 3.9145873595668979e+02 3.0006582401084074e+03 0 0 0
3883 24 18 0.0000000000000000e+00 4.2875841619611964e+02 4.1341583766812801e+02 2.9898418849782279e+03 0 0 0
14071 87 15 0.0000000000000000e+00 4.2984658968623427e+02 3.8627435957625113e+02 2.9839195393380219e+03 0 0 0
13938 86 15 0.0000000000000000e+00 4.8039671029103323e+02 3.8700487758849033e+02 3.0133342573681198e+03 0 0 0
14333 88 18 0.0000000000000000e+00 5.0304667244368727e+02 4.2035931144389338e+02 2.9984850543360581e+03 0 0 0
3212 20 15 0.0000000000000000e+00 4.9735873243158801e+02 3.8662304125013429e+02 2.9858764116475895e+03 0 0 0
3812 24 17 0.0000000000000000e+00 4.5667553729369752e+02 4.1999343080307955e+02 3.0011849821334254e+03 0 0 0
11845 73 4 0.0000000000000000e+00 4.8629696892567432e+02 4.1505375416404399e+02 2.9732739053374371e+03 0 0 0
3184 20 15 0.0000000000000000e+00 4.7855217437867054e+02 4.2119197637461446e+02 2.9931237288114658e+03 0 0 0
11781 73 4 0.0000000000000000e+00 4.2601432331052899e+02 4.0800851443999187e+02 2.9844664770890745e+03 0 0 0
3216 20 15 0.0000000000000000e+00 4.9909156638271168e+02 3.9537163997126822e+02 2.9862961505423555e+03 0 0 0
11786 73 9 0.0000000000000000e+00 4.3054923347413978e+02 4.0452760224969143e+02 2.9970892891283061e+03 0 0 0
13902 86 4 0.0000000000000000e+00 5.0540518674957275e+02 4.1984602295648989e+02 2.9757898616474040e+03 0 0 0
4727 29 15 0.0000000000000000e+00 4.3860250676698286e+02 4.0742161166487278e+02 2.9719800909477144e+03 0 0 0
13899 86 15 0.0000000000000000e+00 5.1191143956428948e+02 4.2045036372683120e+02 2.9791351344930576e+03 0 0 0
13937 86 2 0.0000000000000000e+00 4.8452707586548678e+02 3.8858491702900642e+02 3.0114390312135338e+03 0 0 0
9761 60 2 0.0000000000000000e+00 4.4277582027132081e+02 3.8521196883554103e+02 3.0057837782259112e+03 0 0 0
14053 87 12 0.0000000000000000e+00 4.5572037515041194e+02 3.7111373642071902e+02 2.9937698623002411e+03 0 0 0
9764 60 12 0.0000000000000000e+00 4.3321204235416747e+02 3.8222752659371042e+02 3.0049358293531104e+03 0 0 0
14559 90 12 0.0000000000000000e+00 5.1203343354208675e+02 3.7911350841494038e+02 2.9756938025243448e+03 0 0 0
13904 86 2 0.0000000000000000e+00 5.0776519358283150e+02 4.1578573984695987e+02 2.9759319774258161e+03 0 0 0
14799 91 15 0.0000000000000000e+00 4.6453974419559484e+02 4.1925885753626898e+02 2.9870414563352583e+03 0 0 0
11795 73 2 0.0000000000000000e+00 4.4628912272568226e+02 4.0897223262740732e+02 3.0128756120855087e+03 0 0 0
3888 24 12 0.0000000000000000e+00 4.2252179414838872e+02 4.1383797918289395e+02 3.0000922499025251e+03 0 0 0
3766 24 9 0.0000000000000000e+00 4.9109653765250982e+02 4.1795564229066383e+02 3.0147037515027719e+03 0 0 0
4470 28 12 0.0000000000000000e+00 4.6834832874273644e+02 3.7468124669780002e+02 3.0043868104965268e+03 0 0 0
4499 28 18 0.0000000000000000e+00 4.2647226955223766e+02 3.9767321960248648e+02 2.9935487770859841e+03 0 0 0
2502 16 47 0.0000000000000000e+00 4.2287355106828522e+02 4.1141169183062652e+02 2.9693728378349265e+03 0 0 0
11841 73 6 0.0000000000000000e+00 4.8004445145085924e+02 4.1327166607801200e+02 2.9852390920258135e+03 0 0 0
15158 93 17 0.0000000000000000e+00 4.4175330496162508e+02 4.1928134012538260e+02 3.0068388934395502e+03 0 0 0
11840 73 18 0.0000000000000000e+00 4.7840022581149270e+02 4.1058618901186878e+02 2.9882583603398775e+03 0 0 0
9674 60 47 0.0000000000000000e+00 4.7301265421693455e+02 3.7237822547751711e+02 3.0102409264022986e+03 0 0 0
14085 87 2 0.0000000000000000e+00 4.2793395586248977e+02 3.7535546796639170e+02 2.9926133030401302e+03 0 0 0
14199 88 18 0.0000000000000000e+00 5.1485810910743373e+02 4.0694099679024828e+02 3.0041272667570315e+03 0 0 0
3222 20 18 0.0000000000000000e+00 4.9273188791287629e+02 3.8949797138729622e+02 2.9981066242584507e+03 0 0 0
3218 20 15 0.0000000000000000e+00 4.9549869277492706e+02 3.9677978163207814e+02 2.9906880310220681e+03 0 0 0
13934 86 2 0.0000000000000000e+00 4.8818034526532085e+02 3.9096696750809838e+02 3.0066905290510776e+03 0 0 0
4502 28 2 0.0000000000000000e+00 4.2312463960963009e+02 4.0232945842175718e+02 2.9959797408008471e+03 0 0 0
14046 87 12 0.0000000000000000e+00 4.6143294706242699e+02 3.7401000542276699e+02 2.9870760599398172e+03 0 0 0
4490 28 15 0.0000000000000000e+00 4.3306265680030634e+02 3.8877672551598909e+02 2.9954207706011989e+03 0 0 0
1507 10 2 0.0000000000000000e+00 4.3819846381047108e+02 4.1137219462083419e+02 3.0168452776882446e+03 0 0 0
672 5 12 0.0000000000000000e+00 4.8536624122348616e+02 4.1446555631987138e+02 2.9994206811086601e+03 -1 0 0
13386 83 12 0.0000000000000000e+00 5.1421320597386193e+02 3.9685395796741165e+02 3.0169604406780500e+03 0 0 0
3808 24 2 0.0000000000000000e+00 4.5461096231556940e+02 4.0961270110585906e+02 3.0031677345883209e+03 0 0 0
916 6 2 0.0000000000000000e+00 4.4908372972125164e+02 4.0696031379503279e+02 2.9697444606844292e+03 0 0 0
13919 86 4 0.0000000000000000e+00 4.9282769933807356e+02 4.0562154086453768e+02 2.9826198369303575e+03 0 0 0
11820 73 15 0.0000000000000000e+00 4.7219536283573495e+02 3.8671603924561919e+02 3.0058949625407213e+03 0 0 0
14061 87 12 0.0000000000000000e+00 4.5650520367852795e+02 3.7615967442758068e+02 2.9977891003510190e+03 0 0 0
4474 28 12 0.0000000000000000e+00 4.5857534870413218e+02 3.7963748881313546e+02 3.0042237673135614e+03 0 0 0
685 5 9 0.0000000000000000e+00 5.0821202290305609e+02 4.0875764975305299e+02 2.9922090318198257e+03 -1 0 0
166 2 15 0.0000000000000000e+00 4.3411762092240451e+02 4.0076169189824867e+02 2.9818001289842859e+03 0 0 0
11778 73 15 0.0000000000000000e+00 4.2245244845656089e+02 4.1281956027487553e+02 2.9829707900347221e+03 0 0 0
4469 28 4 0.0000000000000000e+00 4.6930996163268048e+02 3.7708637101525596e+02 3.0073508198649661e+03 0 0 0
927 6 15 0.0000000000000000e+00 4.6359678940081892e+02 4.0674326476539841e+02 2.9765969038443527e+03 0 0 0
3183 20 15 0.0000000000000000e+00 4.7762953105249812e+02 4.1986413960355787e+02 2.9897827643864507e+03 0 0 0
14813 91 9 0.0000000000000000e+00 4.5525715618973805e+02 3.8574783622754234e+02 2.9857627399377388e+03 0 0 0
14070 87 12 0.0000000000000000e+00 4.3349240805722656e+02 3.8650979467746458e+02 2.9826798922144494e+03 0 0 0
14080 87 12 0.0000000000000000e+00 4.1806295186144456e+02 3.7590472426821071e+02 2.9840160207834233e+03 0 0 0
14059 87 9 0.0000000000000000e+00 4.6070960057807412e+02 3.7317243906638043e+02 3.0004038216419017e+03 0 0 0
9760 60 9 0.0000000000000000e+00 4.4315554264308554e+02 3.8602062186830619e+02 3.0088637538896774e+03 0 0 0
11826 73 15 0.0000000000000000e+00 4.8203247914535507e+02 4.0167230074164650e+02 3.0095589560911508e+03 0 0 0
14823 91 12 0.0000000000000000e+00 4.7163222075088657e+02 3.9683511658229918e+02 2.9915590217571985e+03 0 0 0
9768 60 18 0.0000000000000000e+00 4.2233701552845270e+02 3.8546773038855940e+02 2.9992093639258205e+03 0 0 0
13396 83 15 0.0000000000000000e+00 4.9441224395200027e+02 3.8957904553462942e+02 3.0106973031126199e+03 0 0 0
3800 24 2 0.0000000000000000e+00 4.7150620368687385e+02 4.0788563162704833e+02 3.0044240188100084e+03 0 0 0
4144 26 12 0.0000000000000000e+00 5.0361111905853397e+02 3.9990314645119338e+02 2.9693535099311744e+03 0 0 0
11738 73 6 0.0000000000000000e+00 4.2657926751668595e+02 3.9273823324250429e+02 2.9879565533337486e+03 0 0 0
11822 73 15 0.0000000000000000e+00 4.7703925103374348e+02 3.9018547827963090e+02 3.0092486358421529e+03 0 0 0
13402 83 12 0.0000000000000000e+00 4.9021940512173029e+02 3.7667143682697525e+02 3.0122084421676445e+03 0 0 0
14084 87 9 0.0000000000000000e+00 4.2630288594266665e+02 3.7791706363535576e+02 2.9892228349369016e+03 0 0 0
11747 73 4 0.0000000000000000e+00 4.1555053936848481e+02 3.9450578517042374e+02 2.9872343476787528e+03 0 0 0
3804 24 9 0.0000000000000000e+00 4.6504737897472819e+02 4.1226918880216908e+02 3.0079792066318614e+03 0 0 0
13392 83 15 0.0000000000000000e+00 5.0193725964075202e+02 3.9459449539800676e+02 3.0069142191100877e+03 0 0 0
11816 73 49 0.0000000000000000e+00 4.7455817592765919e+02 3.9192081726473867e+02 3.0148971311460341e+03 0 0 0
3186 20 15 0.0000000000000000e+00 4.8331516069810203e+02 4.1898005101453896e+02 2.9920317269472939e+03 0 0 0
3217 20 15 0.0000000000000000e+00 4.9961738856298098e+02 3.9684109600087828e+02 2.9895784046766153e+03 0 0 0
11830 73 12 0.0000000000000000e+00 4.8317014777135932e+02 4.0426526774884303e+02 3.0016690473971644e+03 0 0 0
11792 73 15 0.0000000000000000e+00 4.4008510247075861e+02 4.0492393587075628e+02 3.0071010043240713e+03 0 0 0
9762 60 12 0.0000000000000000e+00 4.4054833750449177e+02 3.8432325222062752e+02 3.0027781244620774e+03 0 0 0
14817 91 12 0.0000000000000000e+00 4.6476513691903642e+02 3.8909937348568252e+02 2.9857457031307372e+03 0 0 0
14024 87 9 0.0000000000000000e+00 4.5077558104565730e+02 3.9195980340530969e+02 3.0028700587300050e+03 0 0 0
682 5 15 0.0000000000000000e+00 5.0877918021440797e+02 4.1223499325179813e+02 2.9999636055306910e+03 -1 0 0
4505 28 18 0.0000000000000000e+00 4.1602836635459363e+02 4.0378516677778316e+02 2.9920680874865016e+03 0 0 0
13409 83 12 0.0000000000000000e+00 4.9797154691187819e+02 3.8016710928043278e+02 3.0155226902087916e+03 0 0 0
3211 20 2 0.0000000000000000e+00 4.9562502777657778e+02 3.8409596175070618e+02 2.9841089648452366e+03 0 0 0
13932 86 15 0.0000000000000000e+00 4.8302372922181286e+02 3.9001686807952433e+02 3.0046229895488759e+03 0 0 0
3226 20 15 0.0000000000000000e+00 4.9866476161552515e+02 3.8247923056836754e+02 2.9981696368829244e+03 0 0 0
11836 73 9 0.0000000000000000e+00 4.8340337405505397e+02 4.0641935980429798e+02 2.9943773088695716e+03 0 0 0
3799 24 9 0.0000000000000000e+00 4.7017049346536186e+02 4.0417272667199211e+02 3.0036294428172455e+03 0 0 0
3204 20 15 0.0000000000000000e+00 4.9774819023963221e+02 3.9584416609567148e+02 2.9756203503960705e+03 0 0 0
14040 87 2 0.0000000000000000e+00 4.6913203187455861e+02 3.7768156132465703e+02 2.9900598969176735e+03 0 0 0
4498 28 9 0.0000000000000000e+00 4.2873071054278608e+02 3.9702897752399275e+02 2.9974464345568931e+03 0 0 0
9751 60 18 0.0000000000000000e+00 4.4378417460643846e+02 3.9366083163019408e+02 3.0132253338595719e+03 0 0 0
3185 20 12 0.0000000000000000e+00 4.8282135504350032e+02 4.2090406127840851e+02 2.9943301722904107e+03 0 0 0
14023 87 7 -1.0000000000000000e+00 4.5152492934071410e+02 3.9526915987513837e+02 3.0041893164428407e+03 0 0 0
4471 28 15 0.0000000000000000e+00 4.6571370141481515e+02 3.7650628297240934e+02 3.0031755160184580e+03 0 0 0
914 6 2 0.0000000000000000e+00 4.4462007838845335e+02 4.0252938083907156e+02 2.9709630942184126e+03 0 0 0
3202 20 6 0.0000000000000000e+00 5.0243338982106229e+02 3.9984287186915486e+02 2.9789285645562964e+03 0 0 0
3885 24 9 0.0000000000000000e+00 4.2679423779225976e+02 4.1012667450525737e+02 2.9940073736345066e+03 0 0 0
11833 73 9 0.0000000000000000e+00 4.8958038541679531e+02 4.0340494704628588e+02 2.9953992936130203e+03 0 0 0
13393 83 12 0.0000000000000000e+00 4.9809708919952101e+02 3.9636427815213904e+02 3.0077699645872731e+03 0 0 0
4486 28 12 0.0000000000000000e+00 4.4056119178588250e+02 3.9301649080455400e+02 2.9973112473215560e+03 0 0 0
11828 73 2 0.0000000000000000e+00 4.8582192196450609e+02 4.0521836917047148e+02 3.0080444823020566e+03 0 0 0
13913 86 9 0.0000000000000000e+00 4.9523356734062088e+02 4.0454958921994887e+02 2.9711828581545460e+03 0 0 0
13911 86 15 0.0000000000000000e+00 4.9933511166916395e+02 4.0364591835975295e+02 2.9759529504708271e+03 0 0 0
3897 24 15 0.0000000000000000e+00 4.3040752392961230e+02 4.2010580631431122e+02 3.0029826876845636e+03 0 0 0
11821 73 12 0.0000000000000000e+00 4.7552171215175628e+02 3.8828583839547451e+02 3.0066254783685231e+03 0 0 0
14100 87 2 0.0000000000000000e+00 4.3149436007547752e+02 3.7556616622094509e+02 2.9811720316616370e+03 0 0 0
14062 87 15 0.0000000000000000e+00 4.5548364138605899e+02 3.7945735873187010e+02 2.9951844714670574e+03 0 0 0
687 5 12 0.0000000000000000e+00 5.1031541868166613e+02 4.1517260918120888e+02 2.9929396703945904e+03 -1 0 0
4726 29 17 0.0000000000000000e+00 4.3778359158138704e+02 4.1137880684678390e+02 2.9717050987881780e+03 0 0 0
11739 73 15 0.0000000000000000e+00 4.2623710177642613e+02 3.9562932134271847e+02 2.9845970669423823e+03 0 0 0
11809 73 12 0.0000000000000000e+00 4.7094801057853402e+02 4.0016075244105639e+02 3.0141219907349828e+03 0 0 0
3894 24 12 0.0000000000000000e+00 4.3646600878819214e+02 4.1226034793847583e+02 3.0033210175794406e+03 0 0 0
1510 10 12 0.0000000000000000e+00 4.2728164191752768e+02 4.1109727006281469e+02 3.0161210394308164e+03 0 0 0
11785 73 2 0.0000000000000000e+00 4.2797796634899692e+02 4.0343453612576940e+02 2.9935385503595794e+03 0 0 0
13918 86 17 0.0000000000000000e+00 4.9147837564817780e+02 4.0876810073103030e+02 2.9807383367862767e+03 0 0 0
13378 83 12 0.0000000000000000e+00 4.9843693457246241e+02 4.0861363517020408e+02 3.0113642383803726e+03 0 0 0
3206 20 4 0.0000000000000000e+00 4.9146246730726540e+02 3.9195559262504304e+02 2.9732140305892440e+03 0 0 0
11787 73 2 0.0000000000000000e+00 4.3108871047470217e+02 4.0230854798478714e+02 3.0000764386227015e+03 0 0 0
666 5 9 0.0000000000000000e+00 4.6941707868319378e+02 4.1776871364827474e+02 3.0057291405788574e+03 -1 0 0
2504 16 2 0.0000000000000000e+00 4.2708826485645147e+02 4.1569541974180720e+02 2.9709823619280410e+03 0 0 0
14052 87 2 0.0000000000000000e+00 4.5213049828872613e+02 3.7346794934349930e+02 2.9926948516249217e+03 0 0 0
11819 73 15 0.0000000000000000e+00 4.7067737118488441e+02 3.8722222260654837e+02 3.0096771735362568e+03 0 0 0
171 2 12 0.0000000000000000e+00 4.3656307574450528e+02 3.8944764372927284e+02 2.9710094039460291e+03 0 0 0
11842 73 18 0.0000000000000000e+00 4.8029695077121067e+02 4.1435000036484746e+02 2.9817830370961351e+03 0 0 0