LAMMPS data file via write_data, version 2 Jun 2020, timestep = 2700000

16300 atoms
54 atom types
16200 bonds
2 bond types
2600 angles
2 angle types

4.2000000000000000e+02 1.3500000000000000e+03 xlo xhi
3.7600000000000000e+02 5.6200000000000000e+02 ylo yhi
2.9760000000000000e+03 3.1620000000000000e+03 zlo zhi

Masses

1 131.2
2 57.05
3 128.2
4 101.1
5 156.2
6 71.08
7 115.1
8 129.1
9 163.2
10 99.07
11 113.2
12 128.1
13 186.2
14 147.2
15 87.08
16 137.1
17 114.1
18 97.12
19 103.1
20 113.2
21 131.2
22 57.05
23 128.2
24 101.1
25 156.2
26 71.08
27 115.1
28 129.1
29 163.2
30 99.07
31 113.2
32 128.1
33 186.2
34 147.2
35 87.08
36 137.1
37 114.1
38 97.12
39 103.1
40 113.2
41 329.2
42 305.2
43 345.2
44 306.2
45 87.08
46 107.44
47 87.08
48 107.48
49 57.05
50 86.92
51 86.92
52 86.92
53 107.44
54 107.48

Bond Coeffs # harmonic

1 2.39 3.81
2 2.39 5

Angle Coeffs # harmonic

1 0.0001 180
2 5 180

Atoms # full

4691 29 15 0.0000000000000000e+00 4.5442735477490658e+02 3.9829224692339596e+02 2.9856201856901698e+03 0 0 0
4692 29 2 0.0000000000000000e+00 4.5446162720860355e+02 3.9724931709856719e+02 2.9807644543308325e+03 0 0 0
4693 29 15 0.0000000000000000e+00 4.5393060407948229e+02 3.9493559922859225e+02 2.9776360064233891e+03 0 0 0
9490 59 12 0.0000000000000000e+00 5.0861167472105092e+02 3.9692167786180232e+02 2.9866447930825443e+03 0 -1 0
9488 59 2 0.0000000000000000e+00 5.0454742390966487e+02 3.9824929596485049e+02 2.9915767148469349e+03 0 -1 0
9489 59 12 0.0000000000000000e+00 5.0797848078906452e+02 3.9639449281991375e+02 2.9903077878008671e+03 0 -1 0
4684 29 15 0.0000000000000000e+00 4.4167182213356227e+02 4.1657449014305934e+02 2.9872816036916684e+03 0 0 0
4681 29 15 0.0000000000000000e+00 4.3466339463826750e+02 4.1722673294784346e+02 2.9907590675937904e+03 0 0 0
4682 29 12 0.0000000000000000e+00 4.3661559442797648e+02 4.1971926391684633e+02 2.9888652166494799e+03 0 0 0
4683 29 15 0.0000000000000000e+00 4.3867212651330766e+02 4.1867512799874521e+02 2.9881289823451202e+03 0 0 0
4678 29 2 0.0000000000000000e+00 4.3879502478250515e+02 4.1060142596492517e+02 2.9967324442902559e+03 0 0 0
4679 29 15 0.0000000000000000e+00 4.3350815212659171e+02 4.1159061780727188e+02 2.9957350515308062e+03 0 0 0
4680 29 15 0.0000000000000000e+00 4.3369535410848835e+02 4.1519510700203386e+02 2.9934343126055437e+03 0 0 0
4688 29 12 0.0000000000000000e+00 4.4841063908675358e+02 4.0484916481409596e+02 2.9886755939073232e+03 0 0 0
4689 29 18 0.0000000000000000e+00 4.5066095796712170e+02 4.0387184014812067e+02 2.9888316577986361e+03 0 0 0
4690 29 12 0.0000000000000000e+00 4.5241632889441399e+02 4.0212340539470438e+02 2.9854621315943159e+03 0 0 0
4189 26 2 0.0000000000000000e+00 4.6131351290633603e+02 4.1573959003324137e+02 2.9825515732929293e+03 0 0 0
4686 29 9 0.0000000000000000e+00 4.4348758797077397e+02 4.1003731916364967e+02 2.9854657351324249e+03 0 0 0
4687 29 2 0.0000000000000000e+00 4.4573890294875895e+02 4.0675115018375618e+02 2.9858228043907229e+03 0 0 0
4685 29 15 0.0000000000000000e+00 4.4447824946929683e+02 4.1502589790299533e+02 2.9854728422039020e+03 0 0 0
4188 26 9 0.0000000000000000e+00 4.5928425537697598e+02 4.1618867683638922e+02 2.9846673353813335e+03 0 0 0
4187 26 15 0.0000000000000000e+00 4.6053952436201416e+02 4.1307668718818724e+02 2.9890194230480365e+03 0 0 0
4180 26 6 0.0000000000000000e+00 4.6272133914504116e+02 4.2407360748509575e+02 2.9947984043922979e+03 0 0 0
4179 26 18 0.0000000000000000e+00 4.5950367530127414e+02 4.2460204625509681e+02 2.9929086044469841e+03 0 0 0
4178 26 12 0.0000000000000000e+00 4.6100025089323162e+02 4.2284357507279907e+02 2.9906615308598848e+03 0 0 0
4177 26 12 0.0000000000000000e+00 4.5978301487144245e+02 4.2211129173766346e+02 2.9874422361987040e+03 0 0 0
4186 26 2 0.0000000000000000e+00 4.5839980260146160e+02 4.1559196737785891e+02 2.9911027606015823e+03 0 0 0
4185 26 15 0.0000000000000000e+00 4.5726190635789555e+02 4.1809269809449262e+02 2.9956954158390663e+03 0 0 0
4190 26 15 0.0000000000000000e+00 4.6503506419703348e+02 4.1512384600743655e+02 2.9788831587400514e+03 0 0 0
9495 59 9 0.0000000000000000e+00 5.0371229606596836e+02 4.1276822987040379e+02 2.9845636340493229e+03 0 -1 0
9477 59 12 0.0000000000000000e+00 4.9460543130796469e+02 4.1374586380569400e+02 2.9845879876632744e+03 0 -1 0
9486 59 18 0.0000000000000000e+00 4.9972449233321350e+02 4.0308141341987675e+02 2.9897486721942441e+03 0 -1 0
9491 59 15 0.0000000000000000e+00 5.0693128227027597e+02 4.0055763011298637e+02 2.9856838569750698e+03 0 -1 0
9494 59 2 0.0000000000000000e+00 5.0653108847318163e+02 4.0983972478784574e+02 2.9827541029581944e+03 0 -1 0
9487 59 9 0.0000000000000000e+00 5.0372784158390135e+02 4.0209748351483086e+02 2.9906294664255620e+03 0 -1 0
9493 59 45 0.0000000000000000e+00 5.0503912838805792e+02 4.0693321926856834e+02 2.9832338483953026e+03 0 -1 0
9492 59 9 0.0000000000000000e+00 5.0585295732321595e+02 4.0439121577630397e+02 2.9853843352950544e+03 0 -1 0
9483 59 15 0.0000000000000000e+00 5.0068229005129120e+02 4.1227589380393209e+02 2.9939324526308169e+03 0 -1 0
9482 59 12 0.0000000000000000e+00 4.9935688502694626e+02 4.1713952959220950e+02 2.9927613411002608e+03 0 -1 0
9481 59 12 0.0000000000000000e+00 4.9631312395284846e+02 4.2007725849827091e+02 2.9927738354636122e+03 0 -1 0
9484 59 15 0.0000000000000000e+00 5.0059364969613148e+02 4.0889726396237052e+02 2.9952920878718978e+03 0 -1 0
9480 59 15 0.0000000000000000e+00 4.9401959590248720e+02 4.1985192974746144e+02 2.9911214708172943e+03 0 -1 0
9496 59 15 0.0000000000000000e+00 5.0180386126269190e+02 4.1013293679520638e+02 2.9875101205310616e+03 0 -1 0
9475 59 18 0.0000000000000000e+00 4.9875020265653967e+02 4.1012635797265239e+02 2.9799589193313122e+03 0 -1 0
9479 59 9 0.0000000000000000e+00 4.9297504895068994e+02 4.1756513870597468e+02 2.9886133394303070e+03 0 -1 0
9476 59 2 0.0000000000000000e+00 4.9520143400912701e+02 4.1128174257078132e+02 2.9804365692803153e+03 0 -1 0
9474 59 12 0.0000000000000000e+00 4.9823626715379925e+02 4.0703523544706508e+02 2.9804904518196495e+03 0 -1 0
9478 59 2 0.0000000000000000e+00 4.9648693525639408e+02 4.1451638844733810e+02 2.9871365287953840e+03 0 -1 0
9485 59 12 0.0000000000000000e+00 4.9913625179233492e+02 4.0650841291353424e+02 2.9918717299111495e+03 0 -1 0
9497 59 12 0.0000000000000000e+00 5.0569588997667370e+02 4.1342129388961871e+02 2.9898358849095653e+03 0 -1 0
9498 59 15 0.0000000000000000e+00 5.0821185681466392e+02 4.1299088021657110e+02 2.9900713360074592e+03 0 -1 0
9471 59 9 0.0000000000000000e+00 4.8946175137118337e+02 4.0639123659352452e+02 2.9763154293475250e+03 0 -1 0
9472 59 18 0.0000000000000000e+00 4.9309965465834858e+02 4.0314655663039645e+02 2.9774530575078429e+03 0 -1 0
9473 59 4 0.0000000000000000e+00 4.9610362377458131e+02 4.0476218693411278e+02 2.9779250482483681e+03 0 -1 0
9503 59 2 0.0000000000000000e+00 5.2189915527407220e+02 4.1747620152305979e+02 2.9897562378774705e+03 0 -1 0
9502 59 15 0.0000000000000000e+00 5.1831105590105574e+02 4.1599708009941884e+02 2.9910780707716563e+03 0 -1 0
9501 59 4 0.0000000000000000e+00 5.1447879499797227e+02 4.1790822786609851e+02 2.9901161497293647e+03 0 -1 0
9500 59 7 -1.0000000000000000e+00 5.1454602670149836e+02 4.1476900457193688e+02 2.9934136228533744e+03 0 -1 0
9504 59 9 0.0000000000000000e+00 5.2357404546970940e+02 4.1429953304490942e+02 2.9867976513046224e+03 0 -1 0
9505 59 2 0.0000000000000000e+00 5.2766850223716108e+02 4.1458113769861234e+02 2.9852941595643306e+03 0 -1 0
9506 59 12 0.0000000000000000e+00 5.3052146072017479e+02 4.1510785814051485e+02 2.9866362507870394e+03 0 -1 0
9511 59 47 0.0000000000000000e+00 5.3189403598146703e+02 4.1906895633218767e+02 2.9803961170551156e+03 0 -1 0
9499 59 4 0.0000000000000000e+00 5.1228739245925476e+02 4.1281225034583946e+02 2.9938826774547601e+03 0 -1 0
9513 59 2 0.0000000000000000e+00 5.3011701606213376e+02 4.2431254842366792e+02 2.9812438890322092e+03 0 -1 0
9512 59 9 0.0000000000000000e+00 5.2932087485061618e+02 4.1947536476280936e+02 2.9830295904249360e+03 0 -1 0
5734 36 15 0.0000000000000000e+00 4.6466320804527459e+02 4.4687750813129708e+02 2.9762836809781688e+03 0 -1 1
4176 26 2 0.0000000000000000e+00 4.6289396770419455e+02 4.2569044139027500e+02 2.9869717515944380e+03 0 0 0
4175 26 9 0.0000000000000000e+00 4.6471594165038698e+02 4.3024556468203997e+02 2.9873440494635133e+03 0 0 0
5730 36 9 0.0000000000000000e+00 4.5661671666398445e+02 4.4467560339942577e+02 2.9812944581464481e+03 0 -1 1
5729 36 2 0.0000000000000000e+00 4.5196299975834319e+02 4.4551899513754410e+02 2.9781771676692465e+03 0 -1 1
4174 26 2 0.0000000000000000e+00 4.6019290382685881e+02 4.3180558236635892e+02 2.9874275726673477e+03 0 0 0
4171 26 15 0.0000000000000000e+00 4.5267883419176974e+02 4.3498500386569566e+02 2.9952548501652618e+03 0 0 0
4172 26 9 0.0000000000000000e+00 4.5621761138729227e+02 4.3452030499715232e+02 2.9917321615732817e+03 0 0 0
4173 26 18 0.0000000000000000e+00 4.5985156877417603e+02 4.3529948454620256e+02 2.9909315822837420e+03 0 0 0
4170 26 15 0.0000000000000000e+00 4.4816906218171943e+02 4.3415937032221450e+02 2.9947622953485125e+03 0 0 0
5728 36 12 0.0000000000000000e+00 4.4929914650566212e+02 4.4878304485849168e+02 2.9785256718485471e+03 0 -1 1
5732 36 12 0.0000000000000000e+00 4.6280347869839983e+02 4.4135346304809730e+02 2.9807248628154362e+03 0 -1 1
5731 36 15 0.0000000000000000e+00 4.5991640085710338e+02 4.4379803934793688e+02 2.9790061789160281e+03 0 -1 1
5733 36 12 0.0000000000000000e+00 4.6537258398845950e+02 4.4378933238010046e+02 2.9788731334938566e+03 0 -1 1
9516 59 12 0.0000000000000000e+00 5.3160807880113089e+02 4.3525575606315221e+02 2.9881276161924479e+03 0 -1 0
9515 59 15 0.0000000000000000e+00 5.2923431124023284e+02 4.3210647631829715e+02 2.9842712294355802e+03 0 -1 0
9572 59 12 0.0000000000000000e+00 5.3128144579980824e+02 4.4753960443438268e+02 2.9866399863501665e+03 0 -1 0
9514 59 12 0.0000000000000000e+00 5.2814728578272866e+02 4.2752759508604998e+02 2.9837292339749206e+03 0 -1 0
5725 36 12 0.0000000000000000e+00 4.5272478351682059e+02 4.5452393353416142e+02 2.9780893040014316e+03 0 -1 1
5722 36 9 0.0000000000000000e+00 4.5682567341902705e+02 4.6156940816626923e+02 2.9850291799778588e+03 0 -1 1
5723 36 18 0.0000000000000000e+00 4.5459988500683193e+02 4.5867598496960261e+02 2.9840950672702379e+03 0 -1 1
5724 36 4 0.0000000000000000e+00 4.5160780868269933e+02 4.5570223807376192e+02 2.9809594397973401e+03 0 -1 1
5721 36 6 0.0000000000000000e+00 4.5950212615386931e+02 4.6505214703936934e+02 2.9884378982227831e+03 0 -1 1
5720 36 2 0.0000000000000000e+00 4.6179857369832678e+02 4.6423885915598152e+02 2.9914374480595325e+03 0 -1 1
5719 36 9 0.0000000000000000e+00 4.6385327326268941e+02 4.6826341682915307e+02 2.9927365371636538e+03 0 -1 1
5718 36 15 0.0000000000000000e+00 4.6366228400888349e+02 4.7307181192382291e+02 2.9937876329202591e+03 0 -1 1
5735 36 15 0.0000000000000000e+00 4.6601619965934680e+02 4.5118069496909186e+02 2.9776840586242306e+03 0 -1 1
4921 31 12 0.0000000000000000e+00 4.7956515381503084e+02 4.5690357249288223e+02 2.9966229983161861e+03 0 0 0
4922 31 18 0.0000000000000000e+00 4.8282861372384679e+02 4.5415430039141592e+02 2.9964127087943257e+03 0 0 0
4920 31 15 0.0000000000000000e+00 4.8205263993766147e+02 4.5916543204664157e+02 2.9952798955827525e+03 0 0 0
5708 36 15 0.0000000000000000e+00 4.8740625202371609e+02 4.7185772218385330e+02 2.9901716914615554e+03 0 -1 1
5709 36 17 0.0000000000000000e+00 4.8371913235968867e+02 4.7226444328557415e+02 2.9903429070921316e+03 0 -1 1
4901 31 4 0.0000000000000000e+00 5.0462599401490377e+02 4.6540516099620351e+02 2.9880770099468268e+03 0 0 0
4903 31 15 0.0000000000000000e+00 5.0148958748107788e+02 4.6574422267223264e+02 2.9919572488562621e+03 0 0 0
4905 31 2 0.0000000000000000e+00 4.9778167970553318e+02 4.5945008973899036e+02 2.9902805612692177e+03 0 0 0
4904 31 9 0.0000000000000000e+00 4.9818968689671431e+02 4.6396978017147819e+02 2.9894807868922771e+03 0 0 0
4902 31 12 0.0000000000000000e+00 5.0321460948074872e+02 4.6870714474901507e+02 2.9888503745834623e+03 0 0 0
4900 31 6 0.0000000000000000e+00 5.0861771526189182e+02 4.6405606358376343e+02 2.9874134011874917e+03 0 0 0
4899 31 12 0.0000000000000000e+00 5.0904032936998004e+02 4.6072231242555756e+02 2.9870084942889134e+03 0 0 0
4908 31 18 0.0000000000000000e+00 5.0438239027104140e+02 4.5708794456961544e+02 2.9958065027499320e+03 0 0 0
4909 31 4 0.0000000000000000e+00 5.0072083163203462e+02 4.5418514857744105e+02 2.9971666830031149e+03 0 0 0
4906 31 6 0.0000000000000000e+00 5.0102173713272697e+02 4.5803376608730997e+02 2.9911778930429687e+03 0 0 0
4907 31 9 0.0000000000000000e+00 5.0477721419215862e+02 4.6019894104309606e+02 2.9926434954603956e+03 0 0 0
4925 31 12 0.0000000000000000e+00 4.8912175178494380e+02 4.5169621110433542e+02 2.9975534191302440e+03 0 0 0
5707 36 6 0.0000000000000000e+00 4.9056106568367989e+02 4.7184477177762682e+02 2.9936746010988472e+03 0 -1 1
4898 31 12 0.0000000000000000e+00 5.1038720722670348e+02 4.5810634885756286e+02 2.9839785279326202e+03 0 0 0
4896 31 9 0.0000000000000000e+00 5.1817042180046951e+02 4.6111522395475640e+02 2.9808012458501912e+03 0 0 0
4897 31 4 0.0000000000000000e+00 5.1371037984282543e+02 4.5701226278157293e+02 2.9818596715393264e+03 0 0 0
9566 59 15 0.0000000000000000e+00 5.1822165930892504e+02 4.5676565879421406e+02 2.9945675952279848e+03 0 -1 0
9565 59 2 0.0000000000000000e+00 5.1439956345648716e+02 4.5422891586217565e+02 2.9937916849429962e+03 0 -1 0
9567 59 9 0.0000000000000000e+00 5.2100317708146474e+02 4.5428695093806766e+02 2.9934124562653174e+03 0 -1 0
9568 59 2 0.0000000000000000e+00 5.2359714507838612e+02 4.5348190065814703e+02 2.9908357610483667e+03 0 -1 0
9569 59 15 0.0000000000000000e+00 5.2719659787145622e+02 4.5269283149233399e+02 2.9935168246727167e+03 0 -1 0
9570 59 15 0.0000000000000000e+00 5.2763130769896463e+02 4.5162388708247141e+02 2.9886273224886008e+03 0 -1 0
9564 59 15 0.0000000000000000e+00 5.1230274031280010e+02 4.5510345673649880e+02 2.9972613608420829e+03 0 -1 0
9571 59 15 0.0000000000000000e+00 5.3176678657765683e+02 4.5147992026333668e+02 2.9860821565636643e+03 0 -1 0
4895 31 7 -1.0000000000000000e+00 5.1624918303099741e+02 4.6312123891485857e+02 2.9767992443996059e+03 0 0 0
1467 9 15 0.0000000000000000e+00 4.2000506262554671e+02 4.1512711738594174e+02 3.0147020196527851e+03 0 0 -1
4675 29 2 0.0000000000000000e+00 4.3724372124006862e+02 4.0413356672647927e+02 3.0054764695739709e+03 0 0 0
4676 29 15 0.0000000000000000e+00 4.3880212011072564e+02 4.0485593967082781e+02 3.0011446532258242e+03 0 0 0
4677 29 9 0.0000000000000000e+00 4.3921005405689993e+02 4.0888618116288615e+02 3.0003947785604360e+03 0 0 0
4673 29 4 0.0000000000000000e+00 4.3167784535079511e+02 4.0267922220991454e+02 3.0090546612681546e+03 0 0 0
4674 29 15 0.0000000000000000e+00 4.3395248148872105e+02 4.0501839739044613e+02 3.0058352590933519e+03 0 0 0
4672 29 15 0.0000000000000000e+00 4.3428338362393538e+02 4.0349814366879406e+02 3.0125855778616542e+03 0 0 0
4671 29 15 0.0000000000000000e+00 4.3687580556696992e+02 4.0302092949121817e+02 3.0162532205334596e+03 0 0 0
4670 29 18 0.0000000000000000e+00 4.4063954894841442e+02 4.0426756751568951e+02 3.0171651587083197e+03 0 0 0
1466 9 17 0.0000000000000000e+00 4.2070163533168738e+02 4.1245270441937333e+02 3.0186312139266256e+03 0 0 -1
4184 26 4 0.0000000000000000e+00 4.5509650601265861e+02 4.1835520919251599e+02 2.9995662569216638e+03 0 0 0
4183 26 15 0.0000000000000000e+00 4.5364077409370685e+02 4.2122676796725204e+02 2.9985601583957068e+03 0 0 0
4181 26 18 0.0000000000000000e+00 4.5912010025554622e+02 4.2276678611954151e+02 2.9986474082465143e+03 0 0 0
4947 31 47 0.0000000000000000e+00 4.9747541019139203e+02 4.2369237664377891e+02 3.0063942078357804e+03 0 0 0
4952 31 12 0.0000000000000000e+00 5.0217214880594520e+02 4.2408509449916966e+02 3.0049078462788111e+03 0 0 0
4953 31 17 0.0000000000000000e+00 5.0622219027711401e+02 4.2343568884516719e+02 3.0048894870501626e+03 0 0 0
4954 31 4 0.0000000000000000e+00 5.0596968449228348e+02 4.2435626228477230e+02 3.0082967294450591e+03 0 0 0
4955 31 2 0.0000000000000000e+00 5.0859410455499665e+02 4.2039667840426051e+02 3.0068762697624356e+03 0 0 0
4945 31 9 0.0000000000000000e+00 5.0241200297274605e+02 4.2312985364725864e+02 3.0112214390019290e+03 0 0 0
4946 31 15 0.0000000000000000e+00 4.9852715764601908e+02 4.2292082709640039e+02 3.0095672476708824e+03 0 0 0
4958 31 4 0.0000000000000000e+00 5.1707416210218128e+02 4.1486896714786309e+02 3.0014462050815587e+03 0 0 0
4956 31 9 0.0000000000000000e+00 5.1270592496389349e+02 4.1898523071685707e+02 3.0069704053107480e+03 0 0 0
4957 31 2 0.0000000000000000e+00 5.1541764445439878e+02 4.1572829770269209e+02 3.0050882674435888e+03 0 0 0
4959 31 12 0.0000000000000000e+00 5.1818492075479946e+02 4.1139586180385970e+02 3.0028704984171773e+03 0 0 0
4960 31 15 0.0000000000000000e+00 5.1849135018741401e+02 4.1196943359562454e+02 3.0061464650715279e+03 0 0 0
4962 31 18 0.0000000000000000e+00 5.2528421999458658e+02 4.1710947589615580e+02 3.0032867388311947e+03 0 0 0
4961 31 4 0.0000000000000000e+00 5.2092387318849308e+02 4.1584963419088405e+02 3.0044454799208143e+03 0 0 0
4964 31 2 0.0000000000000000e+00 5.2549836108903787e+02 4.1568544438930530e+02 3.0079429438955822e+03 0 0 0
4963 31 12 0.0000000000000000e+00 5.2880254918159790e+02 4.1694901138871427e+02 3.0055224789907811e+03 0 0 0
4965 31 9 0.0000000000000000e+00 5.2747961264177411e+02 4.1859400147624490e+02 3.0100700691655061e+03 0 0 0
4966 31 2 0.0000000000000000e+00 5.2670960674886487e+02 4.2137953982823416e+02 3.0107477305368075e+03 0 0 0
4967 31 15 0.0000000000000000e+00 5.2341648135703633e+02 4.2385960305217867e+02 3.0142693075276470e+03 0 0 0
4182 26 15 0.0000000000000000e+00 4.5762115398540192e+02 4.2526923749646858e+02 2.9988687550255654e+03 0 0 0
4166 26 9 0.0000000000000000e+00 4.4691674780705819e+02 4.4316080199536350e+02 3.0013126117454976e+03 0 0 0
4167 26 2 0.0000000000000000e+00 4.4957988006342492e+02 4.4077083311668389e+02 2.9991384889975252e+03 0 0 0
4168 26 12 0.0000000000000000e+00 4.4955498977174699e+02 4.3735000256175476e+02 2.9992401082637907e+03 0 0 0
4169 26 12 0.0000000000000000e+00 4.4738980505220212e+02 4.3412001852730532e+02 2.9988351128106692e+03 0 0 0
4164 26 15 0.0000000000000000e+00 4.5413182201172850e+02 4.4321428711435095e+02 3.0020437312284002e+03 0 0 0
4161 26 15 0.0000000000000000e+00 4.5568733572074910e+02 4.3763949640776718e+02 3.0088891220915671e+03 0 0 0
4158 26 15 0.0000000000000000e+00 4.6420489950288487e+02 4.4116331979516656e+02 3.0137254312089221e+03 0 0 0
4160 26 12 0.0000000000000000e+00 4.5875987411206182e+02 4.3950773784987308e+02 3.0099519153792962e+03 0 0 0
4162 26 15 0.0000000000000000e+00 4.5366929974516103e+02 4.3971075277225935e+02 3.0061200603801649e+03 0 0 0
4163 26 12 0.0000000000000000e+00 4.5471651566175478e+02 4.3960890976691530e+02 3.0028099422390164e+03 0 0 0
4159 26 15 0.0000000000000000e+00 4.6043114925591203e+02 4.3953304856837798e+02 3.0131207303158208e+03 0 0 0
4165 26 15 0.0000000000000000e+00 4.5107288806112308e+02 4.4519603403417113e+02 3.0014965732837040e+03 0 0 0
4156 26 9 0.0000000000000000e+00 4.6852037724126922e+02 4.3720767217917017e+02 3.0126171678283054e+03 0 0 0
4157 26 2 0.0000000000000000e+00 4.6582528290838223e+02 4.3796619767315826e+02 3.0149034578983328e+03 0 0 0
4155 26 49 0.0000000000000000e+00 4.6874231823978329e+02 4.4201192597517530e+02 3.0140540204763752e+03 0 0 0
4154 26 2 0.0000000000000000e+00 4.7043944969078206e+02 4.4579601428706241e+02 3.0146400009324880e+03 0 0 0
4153 26 4 0.0000000000000000e+00 4.7347105853108559e+02 4.4724202606997045e+02 3.0128793511743575e+03 0 0 0
4951 31 15 0.0000000000000000e+00 5.0027197002868542e+02 4.2518205727837471e+02 3.0007959269519542e+03 0 0 0
4948 31 9 0.0000000000000000e+00 4.9497350593103414e+02 4.2498932709901078e+02 3.0040004368796522e+03 0 0 0
4949 31 2 0.0000000000000000e+00 4.9669833100010857e+02 4.2902208106252624e+02 3.0029024128780047e+03 0 0 0
4950 31 12 0.0000000000000000e+00 4.9996911857021570e+02 4.3060103984176612e+02 3.0024007029563777e+03 0 0 0
4941 31 2 0.0000000000000000e+00 5.0501448239633993e+02 4.3682703112320519e+02 3.0162380131975488e+03 0 0 0
4942 31 12 0.0000000000000000e+00 5.0675463906424483e+02 4.3288521126597419e+02 3.0163147714312536e+03 0 0 0
4939 31 2 0.0000000000000000e+00 5.0185875978339624e+02 4.3404175543998110e+02 3.0125994641118896e+03 0 0 0
4940 31 9 0.0000000000000000e+00 5.0314756845506452e+02 4.3829242528759545e+02 3.0133146216150540e+03 0 0 0
4944 31 15 0.0000000000000000e+00 5.0338506486578956e+02 4.2504424962152137e+02 3.0148951168456206e+03 0 0 0
4943 31 15 0.0000000000000000e+00 5.0226442227648374e+02 4.2939166496338515e+02 3.0168946800761705e+03 0 0 0
4938 31 15 0.0000000000000000e+00 5.0114454813176519e+02 4.3111661509450920e+02 3.0106027065746139e+03 0 0 0
4937 31 4 0.0000000000000000e+00 4.9791956929916944e+02 4.3048744247816018e+02 3.0101473938641070e+03 0 0 0
4935 31 4 0.0000000000000000e+00 4.9638076918755206e+02 4.3755580531729652e+02 3.0123334716869681e+03 0 0 0
4936 31 7 -1.0000000000000000e+00 4.9536356506436880e+02 4.3443882969486128e+02 3.0099340336969954e+03 0 0 0
4933 31 12 0.0000000000000000e+00 4.8904449894265616e+02 4.4025807013506443e+02 3.0142149460325459e+03 0 0 0
4934 31 15 0.0000000000000000e+00 4.9297803606806559e+02 4.4019283604064009e+02 3.0124312290691928e+03 0 0 0
4926 31 12 0.0000000000000000e+00 4.9067930328403753e+02 4.4867279926824312e+02 3.0004655049839830e+03 0 0 0
4929 31 45 0.0000000000000000e+00 4.9385836085580985e+02 4.4853904212473901e+02 3.0096547509052621e+03 0 0 0
4932 31 15 0.0000000000000000e+00 4.8970025862199793e+02 4.4443241806794759e+02 3.0127538891740801e+03 0 0 0
4930 31 2 0.0000000000000000e+00 4.9065574721943921e+02 4.4772500568428950e+02 3.0104325164511715e+03 0 0 0
4931 31 9 0.0000000000000000e+00 4.8835364990634514e+02 4.4517515960788126e+02 3.0090246828201061e+03 0 0 0
4977 31 15 0.0000000000000000e+00 5.3235281346833040e+02 4.4314788438740328e+02 3.0183348250411282e+03 0 0 0
4968 31 4 0.0000000000000000e+00 5.2187519723002117e+02 4.2594604613871451e+02 3.0108784573126800e+03 0 0 0
4969 31 2 0.0000000000000000e+00 5.2397985431367874e+02 4.2909261448855563e+02 3.0109483144433375e+03 0 0 0
4976 31 15 0.0000000000000000e+00 5.3092807689780284e+02 4.4055718302639389e+02 3.0170719436116815e+03 0 0 0
4975 31 12 0.0000000000000000e+00 5.2718517478964577e+02 4.3927427409606941e+02 3.0181845248367758e+03 0 0 0
4973 31 15 0.0000000000000000e+00 5.2049370613998497e+02 4.4054627404333047e+02 3.0142029539501909e+03 0 0 0
4974 31 15 0.0000000000000000e+00 5.2443865079574448e+02 4.3822544952618171e+02 3.0159399943194539e+03 0 0 0
4970 31 49 0.0000000000000000e+00 5.2140837977869569e+02 4.3191968570595151e+02 3.0124979355363048e+03 0 0 0
4972 31 2 0.0000000000000000e+00 5.1908904112110531e+02 4.3688542829077528e+02 3.0138810610361315e+03 0 0 0
4971 31 9 0.0000000000000000e+00 5.1757613566208738e+02 4.3358188952979697e+02 3.0148790899232131e+03 0 0 0
4142 26 2 0.0000000000000000e+00 4.6376753159936754e+02 4.6713569204272528e+02 3.0054480013707966e+03 0 0 0
4146 26 4 0.0000000000000000e+00 4.6333658116642033e+02 4.5703962015048711e+02 3.0105442712854788e+03 0 0 0
4147 26 18 0.0000000000000000e+00 4.6285895382536677e+02 4.5226380175557830e+02 3.0119756464016132e+03 0 0 0
4148 26 12 0.0000000000000000e+00 4.6493984011308459e+02 4.5095962674351591e+02 3.0083573771463302e+03 0 0 0
4145 26 15 0.0000000000000000e+00 4.6478487721546378e+02 4.6172048222634209e+02 3.0114377184178684e+03 0 0 0
4144 26 12 0.0000000000000000e+00 4.6121631381588077e+02 4.6295500334969500e+02 3.0102704041715970e+03 0 0 0
4141 26 9 0.0000000000000000e+00 4.6429979722343228e+02 4.7016649728447334e+02 3.0022892620439461e+03 0 0 0
4143 26 4 0.0000000000000000e+00 4.6128441071843451e+02 4.6719770200396312e+02 3.0081843028457447e+03 0 0 0
4140 26 2 0.0000000000000000e+00 4.6766566485939609e+02 4.7256910008616813e+02 3.0024733307620959e+03 0 0 0
4923 31 9 0.0000000000000000e+00 4.8499910776212079e+02 4.5484954328337199e+02 3.0010588989548278e+03 0 0 0
4152 26 15 0.0000000000000000e+00 4.7505061079034169e+02 4.5029849742434169e+02 3.0118762516379170e+03 0 0 0
4151 26 2 0.0000000000000000e+00 4.7425188138298375e+02 4.4992391846189241e+02 3.0082397090337190e+03 0 0 0
4149 26 2 0.0000000000000000e+00 4.6758636010883021e+02 4.5331648833661637e+02 3.0057919570172799e+03 0 0 0
4150 26 9 0.0000000000000000e+00 4.7081062458080834e+02 4.5298779338523957e+02 3.0067850366818602e+03 0 0 0
4917 31 12 0.0000000000000000e+00 4.8296105567796855e+02 4.5862294999803123e+02 3.0043473820023155e+03 0 0 0
4916 31 15 0.0000000000000000e+00 4.8607913282911494e+02 4.5924964039520773e+02 3.0077615130522036e+03 0 0 0
4918 31 12 0.0000000000000000e+00 4.8156154793556288e+02 4.6089796561410594e+02 3.0025499173476028e+03 0 0 0
4919 31 15 0.0000000000000000e+00 4.8245977133950862e+02 4.6133662579374021e+02 2.9984504691670254e+03 0 0 0
1950 12 12 0.0000000000000000e+00 4.8502262572245678e+02 4.7117143529289785e+02 3.0181221727446318e+03 0 0 -1
1951 12 12 0.0000000000000000e+00 4.8611624222523324e+02 4.6807354442723874e+02 3.0156683581065859e+03 0 0 -1
4912 31 2 0.0000000000000000e+00 4.9598587554507588e+02 4.5851179642689823e+02 3.0051758473473506e+03 0 0 0
1955 12 17 0.0000000000000000e+00 4.9783699659472813e+02 4.6816473878207682e+02 3.0178250344765293e+03 0 0 -1
4911 31 18 0.0000000000000000e+00 4.9811007588532260e+02 4.5626178263333321e+02 3.0024866778197188e+03 0 0 0
4910 31 12 0.0000000000000000e+00 4.9883704916982424e+02 4.5698222124947569e+02 2.9981216971149784e+03 0 0 0
4924 31 2 0.0000000000000000e+00 4.8787250953459755e+02 4.5610846939624315e+02 3.0001224271020869e+03 0 0 0
4914 31 2 0.0000000000000000e+00 4.8934712027739914e+02 4.6363348078443227e+02 3.0054657125194494e+03 0 0 0
4928 31 9 0.0000000000000000e+00 4.9376035865437871e+02 4.5044808152674858e+02 3.0056521496022515e+03 0 0 0
4927 31 15 0.0000000000000000e+00 4.9010798939179438e+02 4.5036458231629427e+02 3.0049723822787018e+03 0 0 0
4915 31 9 0.0000000000000000e+00 4.8860630360751378e+02 4.5950999904779485e+02 3.0036597556665333e+03 0 0 0
1952 12 17 0.0000000000000000e+00 4.8992924102930380e+02 4.7013300151380014e+02 3.0141462495739333e+03 0 0 -1
4913 31 12 0.0000000000000000e+00 4.9325792946412952e+02 4.6318078917502663e+02 3.0055946507994013e+03 0 0 0
1953 12 12 0.0000000000000000e+00 4.9279357413170243e+02 4.6798573662300083e+02 3.0126526206129570e+03 0 0 -1
1954 12 9 0.0000000000000000e+00 4.9623590836680273e+02 4.6802828105332293e+02 3.0133508010027645e+03 0 0 -1
1956 12 15 0.0000000000000000e+00 5.0003748835753254e+02 4.6499509832856859e+02 3.0180540821600898e+03 0 0 -1
4982 31 2 0.0000000000000000e+00 5.3192113972920993e+02 4.5575428311423855e+02 3.0165879088005590e+03 0 0 0
9563 59 4 0.0000000000000000e+00 5.1502280945396308e+02 4.5427114254683630e+02 3.0008675528456674e+03 0 -1 0
9562 59 15 0.0000000000000000e+00 5.1540321049469003e+02 4.5754946069336256e+02 3.0029783177453610e+03 0 -1 0
9561 59 15 0.0000000000000000e+00 5.1664514629258758e+02 4.5593376038338494e+02 3.0063363400191256e+03 0 -1 0
9560 59 18 0.0000000000000000e+00 5.2063323738719248e+02 4.5498688887591049e+02 3.0061873990005060e+03 0 -1 0
9557 59 12 0.0000000000000000e+00 5.2366583699626062e+02 4.5883429105072355e+02 3.0142084134430665e+03 0 -1 0
9558 59 18 0.0000000000000000e+00 5.2325994022860050e+02 4.5937285958561307e+02 3.0099330354906806e+03 0 -1 0
9559 59 6 0.0000000000000000e+00 5.2291359297286942e+02 4.5885995648496362e+02 3.0051882110053043e+03 0 -1 0
9554 59 9 0.0000000000000000e+00 5.1478077215845087e+02 4.6272943125200317e+02 3.0173036511979608e+03 0 -1 0
9555 59 2 0.0000000000000000e+00 5.1837059527979886e+02 4.6474377302069530e+02 3.0146985926208254e+03 0 -1 0
9556 59 12 0.0000000000000000e+00 5.1933317326507574e+02 4.6017421514765175e+02 3.0140624537698127e+03 0 -1 0
1455 9 18 0.0000000000000000e+00 4.2467657728846831e+02 3.9539002895901984e+02 3.0246771147158802e+03 0 0 -1
1453 9 9 0.0000000000000000e+00 4.2122904408442042e+02 3.9891768780629445e+02 3.0214599171625982e+03 0 0 -1
1456 9 18 0.0000000000000000e+00 4.2868464001438565e+02 3.9567589704289554e+02 3.0211840920996779e+03 0 0 -1
1457 9 12 0.0000000000000000e+00 4.2645882480712191e+02 3.9908528978604977e+02 3.0195118618126912e+03 0 0 -1
1454 9 17 0.0000000000000000e+00 4.2451253535463195e+02 3.9966203222750676e+02 3.0250363014111886e+03 0 0 -1
11371 70 12 0.0000000000000000e+00 5.2571163018402399e+02 3.9677075781525269e+02 3.0233411979470175e+03 0 0 -1
11372 70 18 0.0000000000000000e+00 5.2262186076798218e+02 3.9519701296536397e+02 3.0258722034811635e+03 0 0 -1
11374 70 15 0.0000000000000000e+00 5.1853421093992085e+02 4.0008069900793856e+02 3.0266154832209791e+03 0 0 -1
11373 70 12 0.0000000000000000e+00 5.2028002775380799e+02 3.9690149556904629e+02 3.0256676094356749e+03 0 0 -1
11369 70 9 0.0000000000000000e+00 5.3094054394415798e+02 4.0036061722988956e+02 3.0226476022980796e+03 0 0 -1
1460 9 2 0.0000000000000000e+00 4.2859982804745533e+02 4.0835978321442138e+02 3.0204510978513813e+03 0 0 -1
1459 9 9 0.0000000000000000e+00 4.2972193178035747e+02 4.0526434203345946e+02 3.0207010313697747e+03 0 0 -1
1458 9 2 0.0000000000000000e+00 4.2811795033943815e+02 4.0261999009818197e+02 3.0198609179075802e+03 0 0 -1
1461 9 12 0.0000000000000000e+00 4.2562616069112704e+02 4.1139889539168030e+02 3.0198235866633227e+03 0 0 -1
1463 9 17 0.0000000000000000e+00 4.2637610727635814e+02 4.1638480276319189e+02 3.0219074991471539e+03 0 0 -1
4667 29 12 0.0000000000000000e+00 4.3618215741142194e+02 4.0851206923065951e+02 3.0238568008963816e+03 0 0 0
4666 29 12 0.0000000000000000e+00 4.3576067584192896e+02 4.0855190355038894e+02 3.0274844102391698e+03 0 0 0
1464 9 12 0.0000000000000000e+00 4.2231048302154454e+02 4.1675245501432732e+02 3.0222404420318776e+03 0 0 -1