LAMMPS data file via write_data, version 21 Jul 2020, timestep = 10000

16300 atoms
54 atom types
16200 bonds
2 bond types
2600 angles
2 angle types

424.0 594.0 xlo xhi
380.0 550.0 ylo yhi
2980.0 3150.0 zlo zhi

Masses

1 131.2
2 57.05
3 128.2
4 101.1
5 156.2
6 71.08
7 115.1
8 129.1
9 163.2
10 99.06999999999999
11 113.2
12 128.1
13 186.2
14 147.2
15 87.08
16 137.1
17 114.1
18 97.12
19 103.1
20 113.2
21 131.2
22 57.05
23 128.2
24 101.1
25 156.2
26 71.08
27 115.1
28 129.1
29 163.2
30 99.06999999999999
31 113.2
32 128.1
33 186.2
34 147.2
35 87.08
36 137.1
37 114.1
38 97.12
39 103.1
40 113.2
41 329.2
42 305.2
43 345.2
44 306.2
45 87.08
46 107.44
47 87.08
48 107.48
49 57.05
50 86.92
51 86.92
52 86.92
53 107.44
54 107.48

Bond Coeffs # harmonic

1 2.39 3.81
2 2.39 5

Angle Coeffs # harmonic

1 0.0001 180
2 5 180

Atoms # full

1737 11 15 0.0 441.1487328691739 400.58856435914805 2989.6420778898405 0 1 0
1739 11 4 0.0 439.9200672997438 395.53255163196786 2994.2633995821584 0 1 0
1740 11 15 0.0 441.4904162544202 391.6680682432098 2993.7754524495017 0 1 0
1741 11 2 0.0 440.73844185846684 388.72496387363054 2990.949415586217 0 1 0
1738 11 15 0.0 442.3618565513582 398.3297943051221 2992.1476169068465 0 1 0
12179 75 15 0.0 433.4582076903231 382.1130077733979 2985.0578136694244 0 0 0
12178 75 15 0.0 434.5009623329126 383.01026036561456 2981.492373130866 0 0 0
12177 75 15 0.0 434.99371394224846 386.87851225104964 2982.572088138246 0 0 0
12180 75 12 0.0 431.6008578125002 380.3885824945407 2987.448840988638 0 0 0
12181 75 15 0.0 431.33736585944155 383.1670038665014 2990.3115187372664 0 0 0
6547 41 12 0.0 443.8652792944001 400.4998896464512 2983.2000450752175 -1 0 0
12175 75 9 0.0 430.37288365534476 390.48517483519737 2983.4528166809805 0 0 0
12176 75 2 0.0 432.4885035944209 388.4444206427749 2980.7567043716335 0 0 0
12174 75 15 0.0 431.5816824213333 394.1148275569702 2982.21604027951 0 0 0
6543 41 12 0.0 430.88317750847494 399.68588793293605 2982.211272598305 -1 0 0
6005 37 2 0.0 433.62737921888277 394.8213356831383 3001.0052513285405 -1 0 0
6546 41 15 0.0 440.250317490911 400.9850456897928 2982.0242787302304 -1 0 0
6007 37 12 0.0 430.05194881010675 400.8370827262379 2999.826461803393 -1 0 0
6127 38 15 0.0 444.9472444794041 397.48726240161375 3000.6628848510186 -1 0 0
1742 11 15 0.0 443.31470029081237 386.87325796729004 2992.452047009037 0 1 0
1743 11 9 0.0 444.9666163915446 384.0629715773412 2990.6136658776754 0 1 0
6542 41 2 0.0 427.0185273189803 398.59677200075095 2982.493140628975 -1 0 0
6541 41 18 0.0 426.28282772430157 394.8788421623626 2982.968743195719 -1 0 0
1744 11 2 0.0 442.45572171081005 381.3434782939069 2988.2661626920953 0 1 0
12182 75 15 0.0 434.9982847577998 383.05760447437495 2991.20406741784 0 0 0
6001 37 12 0.0 439.4403902559551 399.6989781293282 3000.6056621732428 -1 0 0
12185 75 2 0.0 432.5939524835669 380.55208327334816 2999.823068111279 0 0 0
12183 75 15 0.0 436.2359198257106 380.98876427757546 2993.7954310189293 0 0 0
16204 100 2 0.0 424.11936550218417 380.8301149320176 2998.2947689559956 1 0 0
12173 75 2 0.0 435.8784196865826 395.12913899761105 2981.03557062982 0 0 0
8641 54 6 0.0 444.9238838247445 392.5208912082752 2982.324440052308 0 0 1
6129 38 18 0.0 447.42712003408985 399.7521515231905 2994.291811985989 -1 0 0
6124 38 12 0.0 453.94814379018493 392.4855515542051 2997.4045280748114 -1 0 0
6125 38 12 0.0 450.38135089212307 392.37909203004034 2999.1827009554686 -1 0 0
6123 38 2 0.0 452.99915340280234 392.2298763285632 2994.0728590235576 -1 0 0
6550 41 15 0.0 450.1444301236035 397.13907126506786 2986.896034991379 -1 0 0
6121 38 15 0.0 452.67211003580707 389.28930434224253 2989.037266553649 -1 0 0
6120 38 15 0.0 454.6794626338416 386.10316642174087 2988.6787309768306 -1 0 0
6551 41 12 0.0 453.5629679646521 396.4797292667332 2985.6035904424307 -1 0 0
6552 41 18 0.0 457.7429770798781 397.67990372490954 2984.974895142813 -1 0 0
6553 41 9 0.0 459.47848067723913 396.1759378063448 2988.2234153995287 -1 0 0
6554 41 2 0.0 460.441316349639 399.6182157908985 2988.6605715565875 -1 0 0
6549 41 15 0.0 446.62758800477286 399.29153744920507 2987.805971423293 -1 0 0
1415 9 2 0.0 452.81913544291086 399.7509163316577 2995.142868722276 0 0 0
6122 38 9 0.0 451.04491497925386 390.9026960923744 2991.3231522891138 -1 0 0
6119 38 12 0.0 457.6018357317775 383.81057245757677 2989.883129192358 -1 0 0
13300 82 9 0.0 451.9312626613028 383.3763760764503 2997.457210019179 0 0 0
13296 82 12 0.0 460.29392460098944 383.4615806793027 2999.9634448978495 0 0 0
6118 38 15 0.0 458.4895528690875 381.2023467449271 2991.857172893723 -1 0 0
6128 38 9 0.0 445.79485332263727 398.75658592216985 2997.367450583931 -1 0 0
6126 38 15 0.0 447.1434322823107 392.9416085700946 3000.3473891713315 -1 0 0
8653 54 9 0.0 458.58257748420027 386.41511491010095 2981.9387584125757 0 0 1
8655 54 6 0.0 465.047398711387 387.13701496872676 2982.713953572868 0 0 1
8654 54 2 0.0 462.04408678155437 388.27431754217935 2982.2348959832602 0 0 1
13301 82 18 0.0 450.52006934742536 385.36233383514974 3000.460728968568 0 0 0
13299 82 15 0.0 454.32443425340745 381.8413342413604 2998.078431377347 0 0 0
13295 82 2 0.0 458.22970124411677 387.15007498565893 2999.861743545175 0 0 0
8643 54 17 0.0 448.5829810771798 387.30597693525795 2982.6908169284716 0 0 1
8642 54 15 0.0 446.7242727099743 389.96514001282145 2984.8084473561535 0 0 1
6782 42 2 0.0 449.90626420760594 381.35333218530263 2982.763100651391 -1 0 0
6783 42 9 0.0 454.03613968485473 381.84869729070317 2981.2490976633526 -1 0 0
4446 28 4 0.0 471.3358670357156 398.33387971469864 2981.866093640523 -1 0 0
13928 86 12 0.0 468.7902618112076 386.79825509714306 3000.1287886847667 0 0 0
4448 28 4 0.0 469.86271767209524 395.9253224414334 2987.7033802134524 -1 0 0
4447 28 7 -1.0 469.00882622361814 397.8464320134684 2984.989274130728 -1 0 0
4449 28 15 0.0 472.69642070778673 394.1033228983842 2989.859372486861 -1 0 0
4450 28 2 0.0 475.22360869892356 391.24489020223484 2988.55737457508 -1 0 0
4451 28 9 0.0 475.82710892118166 392.49263210906594 2984.9779764905684 -1 0 0
6105 38 2 0.0 476.6989491041569 387.08517355061673 2994.160020410294 -1 0 0
13929 86 2 0.0 468.9448604308918 385.2189633384149 2996.8792721014847 0 0 0
6101 38 15 0.0 478.0476328423765 398.45164711076217 2988.5163464248076 -1 0 0
6106 38 9 0.0 474.51212178301444 384.30847334823835 2994.939243091122 -1 0 0
6104 38 12 0.0 476.7095342966087 391.34191379191486 2994.9937821819162 -1 0 0
6103 38 18 0.0 476.8674400576865 395.0830750149452 2994.908629722773 -1 0 0
6102 38 4 0.0 478.5495060136933 396.4785433070872 2992.5104890295465 -1 0 0
6107 38 2 0.0 475.7307564012729 380.9094625515274 2995.0327491502217 -1 0 0
13930 86 9 0.0 468.4199158810498 381.4531851886506 2996.8244976753494 0 0 0
2694 17 15 0.0 487.61970321445943 384.38532547940326 3000.1851955864345 0 -1 -1
5867 36 17 0.0 487.1380802815531 399.5540409165909 2990.790613614408 0 -1 0
3999 25 15 0.0 484.74076087454347 381.76906784007986 2986.0648693450694 -1 0 0
2693 17 12 0.0 485.2160350142593 382.133603890986 2999.9504105823316 0 -1 -1
2520 16 9 0.0 481.8332046598987 383.65209066386444 2991.522573637767 0 0 0
2692 17 15 0.0 483.6120840493145 380.65737171772753 2997.7212902569986 0 -1 -1
2518 16 12 0.0 486.6593834248652 388.1321011812832 2991.304853476038 0 0 0
2695 17 15 0.0 486.29193963016536 387.30788205974477 2998.0870186497837 0 -1 -1
13932 86 51 0.0 470.1180551441894 380.20697914332095 2990.455168871954 0 0 0
2521 16 2 0.0 481.6650399047235 380.9778987847726 2993.7722506762143 0 0 0
3995 25 15 0.0 474.15562775526234 385.414219132842 2986.931955461624 -1 0 0
3996 25 15 0.0 476.9773671892711 382.6469042563418 2986.442242045259 -1 0 0
3994 25 51 0.0 471.746497188243 382.80489110167434 2986.4825239604825 -1 0 0
2519 16 2 0.0 485.08076337412734 385.33490173789977 2990.5409004587505 0 0 0
13927 86 18 0.0 467.20354052199724 390.4328192596277 2998.7471258525347 0 0 0
13926 86 4 0.0 468.4637711433526 393.3156342041583 2999.70362133947 0 0 0
8659 54 12 0.0 475.1293340061917 380.95021549434256 2980.348460827628 0 0 1
4452 28 2 0.0 476.5666101089363 394.23133420364405 2981.17328854565 -1 0 0
8661 54 2 0.0 480.3277207921865 381.3484320680479 2980.3090541590964 0 0 1
2513 16 4 0.0 490.72897308794325 400.41227519792164 2980.6015568438693 0 0 0
2514 16 12 0.0 492.7254293539791 397.24448738570493 2982.5067526414587 0 0 0
2516 16 4 0.0 489.8976245615621 393.45843321360474 2985.860700470458 0 0 0
2517 16 18 0.0 488.8461808741944 390.0017678676548 2988.897477318703 0 0 0
2515 16 15 0.0 491.4861235129253 393.9563391523884 2981.9398043840783 0 0 0
4008 25 15 0.0 495.2360454223593 382.105005877423 2997.301496574364 -1 0 0
4009 25 9 0.0 497.8140789574574 383.04955783007534 2999.9167533957507 -1 0 0
4007 25 15 0.0 492.16265018008926 383.40327032614294 2994.661046965642 -1 0 0
5866 36 9 0.0 489.2126682420294 396.60824944622874 2990.946587503872 0 -1 0
4006 25 12 0.0 493.1005499862267 385.6015421516006 2991.315864872968 -1 0 0
5865 36 12 0.0 490.2284564592567 394.3573111911193 2994.57419753666 0 -1 0
4004 25 2 0.0 496.321545534832 384.2061854994134 2984.844359268509 -1 0 0
4005 25 12 0.0 493.68485366585145 384.5516134014698 2987.562105620781 -1 0 0
5861 36 2 0.0 502.1835714034533 395.71606688121585 2998.821968462747 0 -1 0
5864 36 17 0.0 492.4621456900427 393.2574377236197 2997.4228588933506 0 -1 0
7839 49 2 0.0 500.8514370663016 399.3469054736937 2982.514450094899 0 0 1
15746 97 18 0.0 508.2147320398346 386.3548514823532 2990.0311861615814 0 0 0
15747 97 2 0.0 504.80258996600975 386.7598015854604 2991.3411998844313 0 0 0
15748 97 9 0.0 501.46981009315635 385.26526657362376 2991.316126944316 0 0 0
5862 36 12 0.0 499.4193561918463 394.7288380761581 2995.937580308767 0 -1 0
5863 36 12 0.0 496.3529940498425 392.7932770102966 2996.5730629255804 0 -1 0
2456 16 4 0.0 507.5739617779882 386.48064847985 2980.043462772178 0 0 0
5860 36 9 0.0 504.8752758279191 392.4680378686842 2998.81941641118 0 -1 0
2696 17 12 0.0 489.8171739911674 388.79976729619705 2998.8591775987616 0 -1 -1
2453 16 12 0.0 508.06287162438207 395.09977619229556 2983.6965454102265 0 0 0
15749 97 2 0.0 503.00894924460295 382.23075641327756 2992.6280909099823 0 0 0
15738 97 15 0.0 503.89841962523207 381.76208630382786 2999.382396037653 0 0 0
15739 97 9 0.0 505.85081226145957 383.11713027234697 2997.0585534663924 0 0 0
15740 97 2 0.0 508.1389083735145 384.5614455252949 3000.1980402355157 0 0 0
4000 25 12 0.0 488.27397098021595 382.2080379015205 2983.2476714959894 -1 0 0
4003 25 9 0.0 496.63631000090066 385.3762867003326 2981.9461148810915 -1 0 0
2458 16 15 0.0 508.18213956414695 380.6532954353051 2982.2436228328147 0 0 0
4002 25 15 0.0 492.7349736394628 386.4154628019019 2981.54507085162 -1 0 0
4001 25 15 0.0 489.58742473676705 385.8250871266039 2983.6118598419926 -1 0 0
2457 16 12 0.0 508.24244441604196 384.33380114863155 2983.7441829512536 0 0 0
2452 16 4 0.0 512.5552502345645 395.6416334817944 2985.779736463633 0 0 0
2447 16 6 0.0 517.7257637726002 393.6742229310751 2996.244874480149 0 0 0
2446 16 1 0.0 517.1948657595319 395.56222067448675 2999.495586021482 0 0 0
15766 97 12 0.0 526.0320039368355 393.076912206754 2986.1361470162524 0 0 0
15765 97 15 0.0 527.2280302860122 390.7095392618753 2988.0581157120964 0 0 0
2450 16 7 -1.0 518.1960764832913 391.3557212459278 2987.3109321497864 0 0 0
2449 16 17 0.0 520.9287313843747 392.05414119123725 2990.1929312490665 0 0 0
2448 16 15 0.0 521.5831997541566 392.79737917015296 2994.667787840344 0 0 0
2451 16 9 0.0 514.4677192587878 392.81396208250106 2986.870499061487 0 0 0
15767 97 15 0.0 523.6202208118548 396.0258080532317 2985.7169046690324 0 0 0
15762 97 2 0.0 530.0063874772293 385.1586544407652 2991.030909194986 0 0 0
15761 97 9 0.0 526.0910974595295 384.9938634992819 2990.6887184070156 0 0 0
15768 97 15 0.0 524.2571268937143 398.65965198742254 2989.2156006632795 0 0 0
15745 97 9 0.0 510.446652400183 386.3437195585818 2993.338953795883 0 0 0
15742 97 12 0.0 513.3457147062709 389.7832060341701 2998.4233083878494 0 0 0
15743 97 15 0.0 513.518595675501 391.86950257571726 2995.2285415572837 0 0 0
15764 97 15 0.0 528.4691799514667 390.9025942236513 2992.334534535062 0 0 0
2719 17 2 0.0 518.0521978356753 400.9893837526873 2994.1115698844674 0 -1 -1
15769 97 15 0.0 526.0640929414621 396.58076716300724 2991.452836780356 0 0 0
15770 97 9 0.0 530.0373011091067 396.6817439613991 2992.4186331296614 0 0 0
2735 17 15 0.0 528.393725348074 400.84074570179354 2985.9343666813866 0 -1 -1
2736 17 2 0.0 524.8468672288848 400.6056211789155 2984.631372640647 0 -1 -1
15752 97 18 0.0 509.94802256650524 380.0666338686319 2989.1954003463334 0 0 0
15744 97 15 0.0 513.916274815947 388.7812569333039 2992.6435995968586 0 0 0
15758 97 15 0.0 520.347500550173 383.1408875120765 2990.4130133216477 0 0 0
15760 97 15 0.0 525.2191062178908 382.87843376730643 2987.4369971434094 0 0 0
15759 97 2 0.0 521.822296780638 386.2479207326884 2987.334461103164 0 0 0
15741 97 12 0.0 511.4199663672738 387.451703809214 2999.32715698267 0 0 0
15763 97 15 0.0 531.181259104271 389.01269262123185 2991.7755861412475 0 0 0
14663 90 2 0.0 539.9030336843025 384.513639030482 2982.003238809068 0 0 0
15771 97 2 0.0 533.7660339229653 395.52088949209406 2991.7504169392837 0 0 0
15772 97 12 0.0 534.2503373654233 395.3908527490284 2987.8783685056633 0 0 0
15773 97 18 0.0 537.5384131441092 392.47369572423827 2988.4904304041456 0 0 0
15774 97 12 0.0 540.4983642255456 393.71335879109114 2985.309253657963 0 0 0
15775 97 15 0.0 539.5434208180186 394.20378761872814 2982.7110966443265 0 0 0
15776 97 2 0.0 535.9905055225574 396.541822088174 2982.6341163274246 0 0 0
8591 53 15 0.0 549.2793378994645 383.94048917765775 2998.2563703294977 -1 0 1
8590 53 2 0.0 549.1876671119962 383.55045740662575 2995.0693896754997 -1 0 1
14662 90 9 0.0 538.8384021019515 383.60754746010565 2985.743986234228 0 0 0
8588 53 15 0.0 548.9697619715998 380.56854893130395 2989.993986585865 -1 0 1
15799 97 18 0.0 550.76111831713 398.77976294655065 2991.040314667746 0 0 0
15796 97 15 0.0 549.2720575964934 399.06467630334504 2999.9482993416423 0 0 0
8589 53 9 0.0 550.5651233689416 380.1523926627062 2993.490642844088 -1 0 1
15777 97 15 0.0 538.5158792977682 399.37012588920214 2981.6797619528425 0 0 0
15781 97 12 0.0 541.5900571161212 398.441089387935 2990.50575066395 0 0 0
14659 90 18 0.0 534.6212839426757 383.63708851423974 2991.5728881311816 0 0 0
14658 90 18 0.0 534.5770657093262 380.0454974437562 2992.586265189829 0 0 0
14661 90 2 0.0 538.6603074873835 386.0097728198437 2988.538176040235 0 0 0
14660 90 12 0.0 538.0437755539508 385.5328282100138 2991.569321257374 0 0 0
15787 97 12 0.0 537.8397680354226 399.5492850641898 3000.761871938199 0 0 0
15785 97 2 0.0 543.7537122200738 397.70552849021044 3000.04954572842 0 0 0
15784 97 9 0.0 545.3797420824178 394.2651807524763 2998.455269138326 0 0 0
15783 97 15 0.0 545.422294726425 396.3485331229012 2995.8907696015913 0 0 0
15786 97 2 0.0 540.0282646903643 396.81568245521146 3000.9149090572987 0 0 0
15782 97 18 0.0 544.4828773181071 396.6675850297425 2991.951825690497 0 0 0
8592 53 15 0.0 552.7339965539982 384.85117960339716 3000.6648769779117 -1 0 1
13360 82 12 0.0 567.1784309559289 385.27472239104253 3000.6072168029023 -1 0 0
15801 97 12 0.0 554.6980293518857 393.61176309566486 2992.307800000169 0 0 0
15800 97 18 0.0 553.6869794119204 397.0710652058738 2989.9673501772245 0 0 0
15802 97 2 0.0 558.029171119646 394.1196610093822 2990.1087273671997 0 0 0
15803 97 9 0.0 561.1005450255609 391.5779715868796 2991.4636387198752 0 0 0
6841 42 12 0.0 565.7209285829626 398.5738330080034 2990.080403034309 -2 0 0
13361 82 12 0.0 567.5056337654571 387.89393751036687 2997.873303685244 -1 0 0
15804 97 2 0.0 561.2546720893333 389.5818322559135 2987.664471454754 0 0 0
15805 97 12 0.0 559.3110554114298 386.85416498833666 2988.4905806742604 0 0 0
15806 97 12 0.0 556.0314774591666 387.4735365326217 2986.9739109467655 0 0 0
13362 82 17 0.0 568.7463818753924 386.03311645010524 2994.407936016441 -1 0 0
8580 53 18 0.0 565.4956836885885 380.89984916530904 2981.7519542121177 -1 0 1
6836 42 12 0.0 569.0863999686442 383.9145893431447 2987.9336209585335 -2 0 0
6837 42 2 0.0 568.90806838513 387.48590598731334 2989.393595295987 -2 0 0
6835 42 18 0.0 572.5692624265939 384.7000300854755 2988.1054559894455 -2 0 0
6839 42 2 0.0 570.5463319835142 394.22079329023944 2991.1749084924813 -2 0 0
6842 42 17 0.0 562.5317992954415 397.57550743299004 2991.572452566017 -2 0 0
13363 82 12 0.0 570.7719172068416 382.43306622117154 2994.384650889052 -1 0 0
15808 97 12 0.0 559.0643787964611 389.03170509804335 2981.944120135964 0 0 0
15807 97 17 0.0 556.2773737762564 389.87507944116635 2984.107809138994 0 0 0
6838 42 9 0.0 570.9765664099898 390.6302850300422 2990.855056141875 -2 0 0
13330 82 15 0.0 572.3627697220704 388.366357022999 3000.2606345275512 -1 0 0
6843 42 12 0.0 560.9675271532815 400.41465089519 2992.491390349111 -2 0 0
6840 42 12 0.0 567.1127866072484 394.7249011120783 2988.883375402728 -2 0 0
15809 97 9 0.0 560.9990683187755 385.9164450749295 2980.1773827506645 0 0 0
10224 63 12 0.0 561.4827201527596 400.41883629948285 2981.9985955957504 -1 0 1
10223 63 15 0.0 558.1553837013582 399.00353447561287 2982.921911968887 -1 0 1
10222 63 15 0.0 558.3682639582612 395.48052834305884 2981.410689532355 -1 0 1
6012 37 2 0.0 592.5502407776471 401.10620086972955 2986.778785747839 -2 0 0
6011 37 9 0.0 593.3742432323506 401.1436131166275 2990.8905484307443 -2 0 0
6834 42 18 0.0 575.6468883621558 383.3866432436273 2985.552848958018 -2 0 0
6833 42 17 0.0 578.7121021069204 384.3430605486126 2988.8919385582094 -2 0 0
6827 42 2 0.0 582.7925785289074 381.24066466074305 2983.4617732567444 -2 0 0
6829 42 12 0.0 588.0578249507037 381.70104656120054 2984.2156990815756 -2 0 0
6832 42 9 0.0 582.9625716715175 382.79695550164445 2989.1688467272024 -2 0 0
6830 42 12 0.0 588.6131176458748 384.3660711843363 2986.5146913668023 -2 0 0
6522 41 6 0.0 584.9530062235576 390.5237993290156 2984.1983423376414 -2 0 0
6537 41 9 0.0 583.6699109914555 396.19338714833145 2981.5309501977226 -2 0 0
6831 42 15 0.0 586.5023119190232 384.27858276262214 2989.5901068049025 -2 0 0
13331 82 2 0.0 573.2724381439766 386.5629314619573 2997.1019048428248 -1 0 0
6523 41 15 0.0 581.2485986746713 391.9796534081088 2983.2970946064297 -2 0 0
6524 41 17 0.0 580.604559702748 387.8351297318377 2983.5773470093386 -2 0 0
13332 82 15 0.0 576.0919979499265 389.0652382515386 2995.093002351835 -1 0 0
13334 82 15 0.0 580.0638538231194 393.68723078295494 2991.3823214582694 -1 0 0
13333 82 9 0.0 577.1088165877227 392.49070769889175 2993.3749198433898 -1 0 0
13337 82 18 0.0 584.0565633381332 400.0736775184765 2995.310478531993 -1 0 0
6540 41 12 0.0 592.7017569623979 394.5905956823007 2982.000748261725 -2 0 0
13336 82 12 0.0 583.3152146696216 398.6618259987902 2991.260080352483 -1 0 0
13335 82 12 0.0 580.7272271533557 396.9602483083656 2989.638686063152 -1 0 0
13339 82 9 0.0 582.904067799079 395.309585672603 3000.120753309012 -1 0 0
13338 82 15 0.0 583.5692538227036 398.5328412069903 2998.769088098574 -1 0 0
13340 82 2 0.0 583.1242500381438 393.75502013031826 2997.560840091705 -1 0 0
6536 41 6 0.0 581.7436829715418 399.4980346349125 2983.078108765742 -2 0 0
6521 41 1 0.0 588.7487131953367 390.88486746125045 2984.0719941717975 -2 0 0
8614 53 2 0.0 573.7010775883555 398.25162666711805 2997.7216871388327 -1 0 1
8615 53 12 0.0 576.9344385049758 398.8120442889241 2999.5847911929004 -1 0 1
13341 82 2 0.0 586.0358313652991 391.2441039218779 2997.7600997040095 -1 0 0
13342 82 12 0.0 584.2369562843476 388.8103329831381 2995.946929885225 -1 0 0
13343 82 12 0.0 583.0668876265911 385.03735089392546 2995.54291334306 -1 0 0
13329 82 12 0.0 574.7136441625373 390.6279562194965 3000.4005477347973 -1 0 0
13328 82 18 0.0 578.2682783928524 391.6614302036459 2999.4854746685724 -1 0 0
13327 82 12 0.0 580.8582434234306 389.6467117514594 3001.1779512893486 -1 0 0
13344 82 12 0.0 583.1704494518672 383.5335946680454 2998.456326337121 -1 0 0
6826 42 9 0.0 580.1541215499892 380.69159664530935 2980.5499398577685 -2 0 0
6525 41 7 -1.0 577.2020448300168 387.6716921983083 2982.7281148156426 -2 0 0
1736 11 18 0.0 440.6493704774862 404.0978141638495 2990.4259769788755 0 1 0
6544 41 2 0.0 434.117061777851 401.8792794807417 2982.256967280919 -1 0 0
6545 41 9 0.0 437.54404233604544 403.04276146797724 2983.500109029498 -1 0 0
1735 11 6 0.0 439.0535083651755 405.6650815547036 2992.9743197971206 0 1 0
6008 37 12 0.0 425.9399883155346 401.70197652932444 3000.4054955963725 -1 0 0
6010 37 15 0.0 424.4081276451443 403.3142693596067 2994.306627891126 -1 0 0
1734 11 18 0.0 436.29074208596967 403.9692686898704 2994.7119009669295 0 1 0
1733 11 12 0.0 435.1024508053281 405.4273219563693 2998.141522021864 0 1 0
9420 58 15 0.0 437.5354779619408 412.29831213197565 2989.381575614062 0 0 1
9421 58 9 0.0 435.6315046434225 413.76726818087565 2987.1788528907473 0 0 1
8632 53 2 0.0 428.49234445206093 415.5885279572783 2999.6258890476574 0 0 1
8630 53 2 0.0 426.84099938397037 410.3220464262433 2996.8267298982755 0 0 1
8631 53 9 0.0 430.2682713976032 412.896925826518 2997.777221106648 0 0 1
9424 58 12 0.0 430.3951573088538 411.37759366891044 2980.8754448044842 0 0 1
9423 58 12 0.0 431.639830537629 409.4187396384576 2983.557527236922 0 0 1
9422 58 15 0.0 432.81257699670425 412.02931620120734 2985.9312178704586 0 0 1
9419 58 2 0.0 441.9178298393799 411.9855118468642 2990.1014451221545 0 0 1
9411 58 15 0.0 441.14753516090974 416.9533764078413 2981.094281041456 0 0 1
9414 58 2 0.0 441.75239688174884 419.14328812912817 2990.1938709501396 0 0 1
9415 58 12 0.0 440.6685697247867 416.6548686354853 2992.752816893428 0 0 1
9417 58 12 0.0 443.2409678094511 412.1876211380679 2995.7730644323065 0 0 1
9412 58 15 0.0 442.43854734050524 419.61755654921024 2983.20893302055 0 0 1
1732 11 12 0.0 431.98559664476807 406.67521107895953 2999.4880748247806 0 1 0
1455 9 18 0.0 432.5302895246107 420.62813564979297 2989.9470392554163 0 0 0
9416 58 18 0.0 441.2765950515481 415.65059897760045 2996.0696381285675 0 0 1
9413 58 9 0.0 442.721252271207 417.45215458342204 2986.56290646201 0 0 1
6000 37 12 0.0 440.03374706454537 402.9210161452679 3000.290216414315 -1 0 0
9418 58 15 0.0 441.9844224451158 409.6636502065506 2993.610366554372 0 0 1
1452 9 15 0.0 433.3385349689677 420.63192251581404 2998.6528608348067 0 0 0
1451 9 12 0.0 434.61864972553747 418.22107496461155 3000.933544605045 0 0 0
1453 9 9 0.0 435.74007111055926 421.0633387812954 2995.555927552009 0 0 0
1454 9 17 0.0 434.02257511646656 419.05260254787794 2992.9046161918836 0 0 0
12155 75 12 0.0 440.41175143927586 408.87432240307703 2981.4160440369606 0 0 0
6548 41 12 0.0 446.0023189365512 402.27080071816994 2985.284877674763 -1 0 0
1416 9 15 0.0 451.57114829188515 402.03659427907354 2998.6438091029586 0 0 0
1417 9 9 0.0 448.25198244999706 403.5263279711045 2999.7428548449825 0 0 0
1414 9 15 0.0 452.06118859300756 401.98970827967565 2992.2527393839596 0 0 0
6555 41 12 0.0 463.6437634832425 401.57297468285896 2988.7796498774837 -1 0 0
7870 49 7 -1.0 458.6385269910841 403.9399847964365 2981.0988518949694 0 0 1
6556 41 12 0.0 465.883564983898 403.3814384823586 2991.5188373889814 -1 0 0
1413 9 4 0.0 455.90302863650714 402.39231021536904 2989.731357686423 0 0 0
6130 38 2 0.0 445.55636349841944 402.0874091187115 2991.30712102582 -1 0 0
6131 38 9 0.0 446.287567858065 405.5657097261278 2991.604039510192 -1 0 0
6132 38 2 0.0 445.5355223031314 408.3183951931234 2987.7700873165873 -1 0 0
6133 38 12 0.0 447.25673762044903 410.62175336771077 2985.4517839373943 -1 0 0
1412 9 15 0.0 456.18861473334334 405.6598777237197 2988.3140355478754 0 0 0
3458 22 12 0.0 455.51180061771436 413.7742178815849 2990.7215298184765 0 0 0
3459 22 12 0.0 458.1444693300126 412.58939350999276 2993.17109625883 0 0 0
3460 22 46 0.0 462.3429454094016 412.6390288703246 2993.9940863589827 0 0 0
3457 22 2 0.0 453.7805936802223 416.5704423623389 2987.9630508729756 0 0 0
3456 22 9 0.0 455.0926420003556 420.2680201112497 2986.651149286951 0 0 0
3455 22 18 0.0 452.7907762849554 420.96287010672614 2984.870941408476 0 0 0
7867 49 12 0.0 462.2178132091592 408.12256783081597 2990.7674654504613 0 0 1
1411 9 15 0.0 454.26059088550807 405.37453550119903 2984.513351211755 0 0 0
1410 9 18 0.0 455.4900514367657 408.7531390292344 2983.561363479768 0 0 0
7868 49 15 0.0 462.50440862160184 407.380264281006 2986.4047431326494 0 0 1
15366 95 15 0.0 459.6524458348513 419.0121845681996 2989.779513349151 0 0 0
7869 49 4 0.0 460.0342041215923 405.3961824102032 2984.0887678208887 0 0 1
15365 95 12 0.0 462.4263691597472 418.3763374970949 2987.6272850840382 0 0 0
1409 9 6 0.0 454.3764527778733 412.5951641609992 2983.7111523744757 0 0 0
6135 38 18 0.0 449.237392034936 416.53012353672045 2983.108052965738 -1 0 0
6134 38 12 0.0 448.69430622028545 414.4338081585066 2986.274671452246 -1 0 0
15367 95 4 0.0 460.3460763850849 421.3052499485255 2992.5518648160114 0 0 0
7866 49 46 0.0 466.0262246109722 409.1197164610131 2990.477330154298 0 0 1
15364 95 46 0.0 465.09449281847793 417.0518356708659 2989.2736634132634 0 0 0
3461 22 46 0.0 464.0759750037788 411.96232143342843 2996.7117942463587 0 0 0
15368 95 7 -1.0 459.87601362491324 418.5109487570754 2995.570511012679 0 0 0
15369 95 4 0.0 460.28426822461876 420.7338144354368 2998.464267593705 0 0 0
3452 22 15 0.0 448.6258203460858 421.3084122994888 2992.323449733183 0 0 0
3454 22 12 0.0 449.31259427921395 422.36121626286695 2985.0123532820708 0 0 0
3453 22 15 0.0 448.9838944381427 421.88736311571694 2988.7136002538687 0 0 0
1405 9 2 0.0 456.88228107824193 418.8021921591143 2981.5496112500605 0 0 0
6136 38 6 0.0 446.58115533189664 416.07321732767355 2980.4361081707148 -1 0 0
2807 18 12 0.0 466.2577221909952 412.1842425672167 2985.152044135687 0 -1 0
2806 18 12 0.0 465.41759480029083 415.2572240649034 2982.240247918281 0 -1 0
2805 18 2 0.0 461.4058024572642 415.2176943781285 2981.5138812524237 0 -1 0
4445 28 15 0.0 472.95029090475634 401.68179299222106 2983.0731176758904 -1 0 0
5868 36 15 0.0 486.0472624825038 401.80114343007057 2987.978959654981 0 -1 0
6100 38 12 0.0 480.42795813787046 401.33137234419064 2986.8384463502694 -1 0 0
6098 38 2 0.0 478.7990169595487 405.5811687454717 2983.431837992554 -1 0 0
6099 38 4 0.0 478.52183832132283 404.7919684982879 2986.775023878673 -1 0 0
15363 95 46 0.0 467.6302784386215 416.37671546956153 2991.9321225579897 0 0 0
6557 41 46 0.0 468.66261908227955 404.70993820458364 2994.04289306372 -1 0 0
15362 95 46 0.0 469.45749594094997 415.37011011129243 2995.6004371642393 0 0 0
4444 28 12 0.0 473.0464102550403 401.9647886352799 2987.4033170670855 -1 0 0
4443 28 46 0.0 470.98424971286704 405.5692361610539 2987.2995531158876 -1 0 0
6558 41 46 0.0 472.63662296960763 403.96696737065133 2994.447463113096 -1 0 0
15361 95 53 0.0 471.9825482304221 415.0629508909861 2998.217844198478 0 0 0
6559 41 53 0.0 476.28205841268147 404.65968472206805 2993.219753835001 -1 0 0
3462 22 53 0.0 466.82896274048284 410.74841255937247 2998.728717423089 0 0 0
10633 66 46 0.0 471.6278091066854 418.59885663350315 2987.211745656265 0 -1 -1
13081 81 46 0.0 475.3962738687719 410.66267628941273 2983.687808700198 0 0 0
4441 28 46 0.0 476.45513847978845 410.2108615852107 2990.675250827196 -1 0 0
10634 66 53 0.0 471.52388135050103 419.94037931155833 2989.596161626742 0 -1 -1
10635 66 46 0.0 471.5761658352567 420.6176704076342 2993.500849215217 0 -1 -1
2811 18 46 0.0 474.1070992448806 415.350739335209 2992.998382580179 0 -1 0
7863 49 53 0.0 475.4933000093121 410.94856799133584 2996.218894402635 0 0 1
2810 18 53 0.0 472.3277861265142 413.83143830578047 2991.0489926023033 0 -1 0
2809 18 46 0.0 471.36467374960705 413.4490041634877 2988.700628710705 0 -1 0
7864 49 46 0.0 472.206619824131 410.3376084768461 2994.915060504527 0 0 1
7865 49 46 0.0 468.8908329253182 409.8049327933971 2992.8834931841257 0 0 1
4442 28 46 0.0 473.720274181301 408.0544956567254 2988.9244153761524 -1 0 0
6560 41 46 0.0 479.69806222483317 405.91054606801225 2992.54074308986 -1 0 0
3463 22 46 0.0 470.49037514464226 410.024398950844 2999.527131573566 0 0 0
4438 28 46 0.0 482.26445036500826 418.01409440114946 2992.869099942163 -1 0 0
7862 49 46 0.0 478.5915623577411 411.63015379675886 2997.1349475291554 0 0 1
2813 18 46 0.0 479.1162260355416 416.80516924200293 2997.6228255648775 0 -1 0
13080 81 46 0.0 476.36617902117854 413.37110288115116 2985.1472299543693 0 0 0
4439 28 46 0.0 481.4101868952988 414.7466977591312 2991.9651824083157 -1 0 0
4440 28 53 0.0 479.2933468853522 412.43779590964783 2990.9557304980617 -1 0 0
13079 81 53 0.0 476.53445901184085 416.04465986774346 2987.1686788890015 0 0 0
2812 18 46 0.0 476.2934395572503 416.23664169920045 2995.402725428668 0 -1 0
13078 81 46 0.0 477.0406380295506 419.4874255514874 2989.6962222481666 0 0 0
6562 41 46 0.0 486.0890512486986 409.56677657196406 2991.0280845994916 -1 0 0
6561 41 46 0.0 483.123855415809 407.4643443677305 2991.8296999121026 -1 0 0
6563 41 12 0.0 485.8812363400154 411.5283512080346 2987.9423310453535 -1 0 0
7861 49 46 0.0 482.13259804756376 411.0957605744493 2997.3505742498214 0 0 1
4437 28 12 0.0 485.6953161218288 419.73895466036953 2991.313013910598 -1 0 0
10636 66 46 0.0 473.3091074440395 420.76445272053724 2997.3172205152678 0 -1 -1
10637 66 46 0.0 475.0733082543377 421.86388795416843 2999.7919499715035 0 -1 -1
7860 49 12 0.0 485.2388251400571 408.629673163737 2997.9349850929493 0 0 1
13082 81 46 0.0 473.2992857474544 408.4090292192422 2982.3866751748387 0 0 0
10632 66 46 0.0 471.36687991622773 417.45679183123957 2983.975854271765 0 -1 -1
6567 41 4 0.0 486.54823947596253 421.79091281772844 2983.175772446963 -1 0 0
2808 18 46 0.0 469.9603098588289 412.70356608369025 2985.698460196285 0 -1 0
3464 22 46 0.0 473.41310062096454 408.0104157065661 3000.019626422851 0 0 0
15360 95 46 0.0 474.2904284782484 415.93025724147384 3001.033154106484 0 0 0
2814 18 12 0.0 482.5055740671775 417.1362114765454 2998.1798457178184 0 -1 0