LAMMPS data file via write_data, version 21 Jul 2020, timestep = 10000

16300 atoms
54 atom types
16200 bonds
2 bond types
2600 angles
2 angle types

426.5 600.0 xlo xhi
381.5 555.0 ylo yhi
2981.5 3155.0 zlo zhi

Masses

1 131.2
2 57.05
3 128.2
4 101.1
5 156.2
6 71.08
7 115.1
8 129.1
9 163.2
10 99.06999999999999
11 113.2
12 128.1
13 186.2
14 147.2
15 87.08
16 137.1
17 114.1
18 97.12
19 103.1
20 113.2
21 131.2
22 57.05
23 128.2
24 101.1
25 156.2
26 71.08
27 115.1
28 129.1
29 163.2
30 99.06999999999999
31 113.2
32 128.1
33 186.2
34 147.2
35 87.08
36 137.1
37 114.1
38 97.12
39 103.1
40 113.2
41 329.2
42 305.2
43 345.2
44 306.2
45 87.08
46 107.44
47 87.08
48 107.48
49 57.05
50 86.92
51 86.92
52 86.92
53 107.44
54 107.48

Bond Coeffs # harmonic

1 2.39 3.81
2 2.39 5

Angle Coeffs # harmonic

1 0.0001 180
2 5 180

Atoms # full

3610 23 2 0.0 435.18258453412403 394.60279610821874 2989.975206456986 0 0 0
10411 64 15 0.0 437.95093081329566 395.80378608810526 2985.327597294456 0 1 1
10412 64 9 0.0 441.41060344362046 394.45350017338563 2983.6203906048663 0 1 1
10410 64 12 0.0 437.4638257347029 398.6305185945018 2982.193104381866 0 1 1
3608 23 2 0.0 433.6953975471741 392.33504152684196 2983.1442583810267 0 0 0
3609 23 12 0.0 432.51662201104966 393.86042998161577 2986.2637906731884 0 0 0
1607 10 12 0.0 430.1812919630548 385.56642837942263 2994.5688263279053 0 0 0
1608 10 12 0.0 427.0409698170373 385.0341154828 2992.927341695738 0 0 0
3606 23 12 0.0 437.7519749192221 388.7962227132565 2985.7973676315064 0 0 0
3605 23 4 0.0 440.88120235857764 387.1387170314243 2986.944201118122 0 0 0
3607 23 18 0.0 433.4911817304977 388.9489389820282 2983.807697399277 0 0 0
1609 10 15 0.0 427.38977293169046 384.8232983039601 2989.2046089646346 0 0 0
3604 23 18 0.0 443.36496757477636 386.7461132805012 2988.489773352097 0 0 0
3612 23 15 0.0 429.74338202661306 395.3670928823906 2991.3165630605786 0 0 0
3613 23 12 0.0 427.3661002695336 395.35221273567396 2994.320621531894 0 0 0
1611 10 2 0.0 432.4431939122818 385.97228461619346 2989.041873656482 0 0 0
1610 10 9 0.0 429.1859702024964 387.18631760104535 2987.1427648069853 0 0 0
3611 23 9 0.0 432.8056918996766 394.8578349952803 2992.735613465244 0 0 0
1613 10 12 0.0 436.48778352220813 381.95527709813723 2987.6464181906053 0 0 0
1612 10 12 0.0 432.6327866761359 382.0924768114107 2986.6594266286 0 0 0
3601 23 2 0.0 445.0934069505154 386.82311482759144 2997.5969833315235 0 0 0
3600 23 9 0.0 444.7796799066954 384.00264179163037 3000.0214951567195 0 0 0
15089 93 12 0.0 454.2871115158661 397.326418546354 2991.257573268742 0 0 0
15090 93 12 0.0 457.3596028643323 399.2665244104576 2990.5301236451774 0 0 0
15088 93 2 0.0 452.9862521878625 397.3131405485603 2987.7148725544057 0 0 0
15087 93 9 0.0 451.9733606194178 394.8995664851216 2985.6185805974033 0 0 0
15092 93 15 0.0 457.27209133609813 395.6584117048486 2995.3501828362723 0 0 0
15091 93 15 0.0 458.66830932422664 399.2122994113936 2994.8420519653964 0 0 0
15093 93 9 0.0 457.699589035406 393.1959325133055 2998.565304210314 0 0 0
7776 48 15 0.0 451.73514238420927 390.69809236252905 2991.853844488043 0 0 0
7775 48 2 0.0 451.6362338524726 391.0273399198956 2995.242248457333 0 0 0
15085 93 15 0.0 447.40471299345995 391.7389715762052 2986.8370170957464 0 0 0
15084 93 12 0.0 447.6207802425062 388.7907666592815 2984.3514403368663 0 0 0
15083 93 15 0.0 448.567243460171 384.68027168466494 2984.3070724271925 0 0 0
7777 48 15 0.0 454.04383554291644 387.7784008343228 2990.9447645150244 0 0 0
7774 48 9 0.0 449.2960511093246 393.3116385835521 2998.5814668554476 0 0 0
15086 93 15 0.0 451.4332306706147 391.62952175343935 2987.1533612401977 0 0 0
7772 48 2 0.0 452.31028506451315 398.39464210796046 2998.9494679882214 0 0 0
10721 66 12 0.0 461.20010291719746 386.6393675620751 2983.223375827938 1 0 0
15094 93 18 0.0 461.1874159241783 394.4981414168821 2998.5067524378114 0 0 0
15095 93 2 0.0 464.19071634795773 392.211615833944 3000.188134699674 0 0 0
16247 100 15 0.0 461.5046285957723 396.69668021399735 2981.767312420708 0 -1 1
7778 48 15 0.0 452.25421199762366 384.7039583655243 2992.6357017810155 0 0 0
3603 23 9 0.0 445.98313503189274 385.45437645135394 2990.9819323032984 0 0 0
3602 23 6 0.0 447.7199320456224 385.4319889136973 2994.661780198583 0 0 0
10723 66 2 0.0 457.67031641536016 390.89482359470236 2983.7671285396277 1 0 0
10722 66 15 0.0 461.0403259596896 389.6737017173409 2985.074696392074 1 0 0
16255 100 12 0.0 469.0691763698554 388.0164358453886 2984.926468790469 0 -1 1
10589 65 12 0.0 480.16625015620014 384.5611876646568 2986.63981028348 0 0 -1
16254 100 15 0.0 473.01796132290787 389.6040504107938 2983.7146330047335 0 -1 1
10588 65 2 0.0 477.68797271446584 386.8372446955954 2983.7380974231564 0 0 -1
16256 100 15 0.0 468.04806065156777 384.27431433588634 2984.59703253637 0 -1 1
16279 100 15 0.0 470.0269753172495 382.6913056855008 2998.5227899288097 0 -1 1
16280 100 9 0.0 473.7419425623482 384.5988660807326 2998.0503674983547 0 -1 1
16281 100 2 0.0 477.7455778819596 384.3517979083402 2997.945539425428 0 -1 1
16251 100 2 0.0 467.06011968939515 392.3833982843896 2981.7541238023305 0 -1 1
15797 97 9 0.0 487.12360807430673 383.63144504934405 2985.3091749716523 0 0 0
15798 97 17 0.0 484.9467606878129 385.46148798116457 2982.911112070949 0 0 0
15756 97 15 0.0 503.00890775469065 399.23626510898447 2983.5372899329873 0 0 0
12278 76 15 0.0 498.19907517847207 397.7300698156691 2993.181406063034 0 1 -2
12279 76 15 0.0 501.51477564309516 397.6287587579584 2994.169328380208 0 1 -2
12273 76 15 0.0 496.896970171672 397.4949361194233 2983.107447456839 0 1 -2
12274 76 2 0.0 494.4998275391803 399.89440498468537 2984.613956446002 0 1 -2
12280 76 9 0.0 502.6122973873586 396.910462990767 2997.2474800782434 0 1 -2
15758 97 15 0.0 503.9495554844671 393.4703868153776 2987.685010129962 0 0 0
15760 97 15 0.0 507.65756146622346 388.5244569265612 2991.775382796675 0 0 0
15762 97 2 0.0 512.5905676642531 387.9509502955226 2993.7280746937126 0 0 0
15759 97 2 0.0 504.868116524165 389.6229987129004 2988.5868200224754 0 0 0
15757 97 4 0.0 504.1011745180905 397.4588061465173 2986.840484495756 0 0 0
9777 60 12 0.0 519.2251197025548 384.5450110964697 2988.2309780260475 0 0 0
9774 60 12 0.0 520.7246735688811 392.35614997374097 2989.292671163185 0 0 0
9775 60 12 0.0 521.613497986581 389.9608548926494 2985.855171893094 0 0 0
9776 60 17 0.0 519.764017881432 386.71941712164255 2985.5540758238844 0 0 0
15761 97 9 0.0 510.87187301812565 390.5562144746549 2992.879382553476 0 0 0
12261 76 12 0.0 508.20877263832466 384.08621480580285 2984.617051697396 0 1 -2
12259 76 2 0.0 508.42570836745756 389.5308454622457 2983.6582602377352 0 1 -2
12260 76 12 0.0 506.23712127155085 387.00926921431073 2982.490564300765 0 1 -2
15764 97 15 0.0 515.0210455867957 385.1991378215967 2997.117501634595 0 0 0
15765 97 15 0.0 516.2648899951098 381.8902597231114 2998.762801039093 0 0 0
15763 97 15 0.0 516.0754146738334 388.1151438055321 2994.9514759441954 0 0 0
12244 76 4 0.0 520.4973338332275 398.0209083336609 2999.536029830439 0 1 -2
12245 76 12 0.0 517.8612769448505 397.9730751000167 2995.9849517105686 0 1 -2
12281 76 15 0.0 505.3847865316273 397.6161627184715 3000.5579762094153 0 1 -2
12255 76 15 0.0 510.2310155021575 400.3047570047339 2982.006045854326 0 1 -2
12258 76 9 0.0 510.5941813311194 392.59892607649175 2984.274576086339 0 1 -2
12257 76 18 0.0 508.31844012751884 395.74121797022445 2983.414748188785 0 1 -2
9773 60 2 0.0 524.3836725896933 392.5192509004577 2989.331561399608 0 0 0
9772 60 9 0.0 527.602237215026 393.4012268900747 2988.437179998458 0 0 0
9771 60 2 0.0 527.7995913809659 391.12561322589744 2985.364235325238 0 0 0
9770 60 12 0.0 528.6188004603116 388.4070658418695 2982.479508915146 0 0 0
9769 60 18 0.0 526.3244826510136 384.99309346024813 2984.2420942169597 0 0 0
9768 60 18 0.0 526.0200365535513 384.4208516096743 2987.502249002541 0 0 0
12234 76 12 0.0 539.4206863084298 388.08601493365614 2993.7124540033815 0 1 -2
12230 76 7 -1.0 539.7243174123385 398.35453528610867 3000.5145750523443 0 1 -2
12231 76 9 0.0 538.7539105559363 395.82651837003186 2997.7390386317193 0 1 -2
12232 76 4 0.0 541.741850099201 393.5467015121098 2997.279957774958 0 1 -2
12237 76 12 0.0 531.4591743929459 385.09578804561073 2997.04246521098 0 1 -2
12236 76 4 0.0 534.3206052675785 387.11099375001186 2996.411031971459 0 1 -2
12235 76 6 0.0 535.4783803193334 389.37469942381045 2993.401116262119 0 1 -2
296 2 12 0.0 534.7269818610794 382.26442299923895 2984.6023432051456 -1 0 0
12233 76 12 0.0 541.6384090446195 390.27748496825257 2995.834452423699 0 1 -2
297 2 18 0.0 532.8127953825447 384.73155409384657 2981.904653911183 -1 0 0
294 2 15 0.0 541.7819144334594 382.421822991862 2984.036128916758 -1 0 0
12240 76 2 0.0 523.3137154904609 388.0644116915828 3000.7343030840584 0 1 -2
12239 76 9 0.0 525.5269617153497 388.42255885996553 2998.0564615051103 0 1 -2
12238 76 15 0.0 527.0839339006372 384.7548657197381 2997.1921293136315 0 1 -2
13550 84 18 0.0 550.872255161351 390.47291418370236 2994.8808306955425 0 0 -1
13547 84 18 0.0 552.852332894334 391.1494403185991 2985.9312109421826 0 0 -1
13549 84 12 0.0 549.6773030471154 392.9563873391274 2991.9335102693444 0 0 -1
13548 84 4 0.0 549.2072236801516 391.42902273548657 2988.3992864638394 0 0 -1
13551 84 2 0.0 552.2508805290556 390.3676828831921 2998.3753339856366 0 0 -1
13546 84 9 0.0 553.7215142697437 388.4370459559069 2982.0018475912507 0 0 -1
15542 96 47 0.0 557.948190981172 398.45500528330297 2993.668887724689 0 1 0
293 2 9 0.0 545.171369395692 383.0407440198958 2982.571919339392 -1 0 0
15539 96 15 0.0 552.0093302350258 399.1138134980492 2994.5352854856956 0 1 0
15540 96 9 0.0 552.6388341860281 398.2122906361701 2991.2463530676055 0 1 0
13542 84 15 0.0 550.9015771110021 395.0245822113208 2982.2782801286985 0 0 -1
15541 96 15 0.0 556.2329498121446 399.85126771629774 2990.615553629672 0 1 0
15544 96 2 0.0 560.1074375241142 395.49408188211015 2998.1506598416886 0 1 0
15543 96 9 0.0 560.9092463261745 396.7594633279018 2994.339660672566 0 1 0
15545 96 12 0.0 561.1778558611056 392.9267631086245 3000.4255563162305 0 1 0
13541 84 12 0.0 548.394283910382 397.8735577684615 2984.1364454948484 0 0 -1
13540 84 4 0.0 549.2320160747934 400.23508755893346 2986.439866090135 0 0 -1
15554 96 12 0.0 579.2510079520387 383.06117654732486 2996.469390211956 0 1 0
15547 96 12 0.0 569.5314983778335 392.44795370882866 2999.8559634716985 0 1 0
15557 96 18 0.0 572.0894340862719 381.8048539520099 2990.8875593653397 0 1 0
2548 16 12 0.0 580.4643924003424 395.8331010767176 2986.0029596870827 -1 0 0
15555 96 15 0.0 575.4917588072831 383.36651841372174 2997.4525275229653 0 1 0
2547 16 12 0.0 577.9910776391673 393.5351592167118 2987.7422442284637 -1 0 0
15558 96 12 0.0 568.0064378556938 381.92652180294635 2991.567269364507 0 1 0
2544 16 2 0.0 578.2049690491085 382.46458208047443 2987.7225980293474 -1 0 0
15549 96 4 0.0 575.5878837445186 388.93060499712266 2999.2283534461685 0 1 0
2546 16 2 0.0 576.3782344482952 390.35037605825363 2987.420230417604 -1 0 0
15548 96 17 0.0 572.4976616586603 390.8065031743602 3000.118317031041 0 1 0
13560 84 12 0.0 563.1314008563797 381.8525551744847 3000.415458445964 0 0 -1
15551 96 9 0.0 579.0255234286669 392.2931395139356 2996.267949616293 0 1 0
15550 96 2 0.0 575.4482186769962 391.17141390902276 2995.418815718589 0 1 0
2545 16 9 0.0 576.7516490697137 386.5702555953754 2987.99663024619 -1 0 0
2542 16 9 0.0 574.3512349498428 381.6130518854908 2984.109969182154 -1 0 0
3614 23 12 0.0 599.438491804638 392.3640559074595 2995.877411935323 -1 0 0
15553 96 4 0.0 581.6100412598819 385.2627368313125 2995.044806618582 0 1 0
3619 23 9 0.0 586.0261421250866 393.05110371846814 2998.893534057722 -1 0 0
7662 48 1 0.0 591.706754503243 394.6134343418881 2982.021565476006 -1 0 0
7665 48 17 0.0 599.3885346407515 395.13047161326193 2984.4698835772774 -1 0 0
2564 16 15 0.0 593.3456889642614 393.7308115185562 2994.768684114371 -1 0 0
13796 85 18 0.0 582.5542719783639 386.56608382793837 2988.8150131628704 0 0 0
13795 85 12 0.0 584.4588369235364 382.9943872350997 2987.72269025725 0 0 0
13797 85 6 0.0 581.2696566692327 390.19089255035544 2989.5260428060415 0 0 0
13798 85 18 0.0 584.5790227086518 390.60091578768095 2992.3133894690673 0 0 0
7663 48 6 0.0 593.16942355942 397.9027133053297 2982.85576148167 -1 0 0
7664 48 15 0.0 596.335295888535 396.86054170429793 2984.619246982852 -1 0 0
13800 85 15 0.0 590.6049676287603 389.3428785124688 2986.9272986874075 0 0 0
13799 85 15 0.0 588.236510422545 389.1910882639787 2989.6148497281292 0 0 0
13794 85 12 0.0 586.3710727995467 382.43895025178324 2990.771201855948 0 0 0
3617 23 12 0.0 590.4990201851256 388.51006632604106 2995.0745266466315 -1 0 0
3618 23 18 0.0 588.6425870452454 391.54547553365046 2996.3280373289367 -1 0 0
3616 23 15 0.0 594.3034007899444 388.2120940977815 2995.916094895291 -1 0 0
13801 85 4 0.0 591.1744820118704 388.40577558367966 2983.5773873465455 0 0 0
2556 16 2 0.0 585.2466985861054 400.043993335962 2990.1646985996667 -1 0 0
2563 16 12 0.0 595.0207114311368 397.154771704805 2997.749901754336 -1 0 0
2562 16 15 0.0 593.985529533508 399.4954658196412 3000.347686254219 -1 0 0
2555 16 15 0.0 585.7315828035091 400.41536607773224 2986.624109468239 -1 0 0
2565 16 15 0.0 591.9409227069468 395.7430098879345 2991.6325789029315 -1 0 0
2566 16 15 0.0 592.3926866588156 399.66478810623096 2990.0605330220524 -1 0 0
3615 23 15 0.0 597.3521674055669 390.43006533900177 2993.260288952277 -1 0 0
15552 96 2 0.0 581.5209622380974 389.81943067604567 2996.4042053344792 0 1 0
2549 16 18 0.0 581.0191915468147 398.56611600254337 2983.653618085079 -1 0 0
10409 64 12 0.0 438.5331008715285 402.23560895849226 2983.2747007670855 0 1 1
7744 48 15 0.0 438.15197654975776 410.9183622167014 2984.5930914808837 0 0 0
7743 48 2 0.0 436.56133239536024 407.95444330781226 2985.6296711883206 0 0 0
7742 48 9 0.0 432.92251548088313 406.1076804682043 2985.9157041087915 0 0 0
7739 48 4 0.0 432.06812822427185 410.4678427726861 2993.543789007107 0 0 0
7738 48 15 0.0 430.17885809513973 412.8041799217943 2995.4077796061833 0 0 0
7741 48 49 0.0 431.68745601870836 404.7488458802913 2988.947289704886 0 0 0
7740 48 2 0.0 432.84641311706315 406.86944488713715 2992.219591540193 0 0 0
7737 48 2 0.0 426.7943603198774 414.7337890456041 2993.55853926506 0 0 0
7763 48 12 0.0 443.9513950016791 419.8013730248769 2991.9972709657313 0 0 0
9131 57 15 0.0 438.3662873971601 407.2372603529347 2992.423022228726 0 0 0
9130 57 6 0.0 438.02406788025866 408.9839111280066 2996.4442367393967 0 0 0
9132 57 17 0.0 440.71229497942034 406.10582145609004 2989.6091743176266 0 0 0
7753 48 2 0.0 437.17836069523213 415.50041179417826 2984.154633469484 0 0 0
7766 48 6 0.0 445.638776377682 412.5356062654162 2993.7147376359926 0 0 0
9129 57 1 0.0 439.2596995037218 411.82818407348856 2994.3897793028323 0 0 0
9133 57 7 -1.0 443.645486407316 408.26025116236474 2989.4902413266504 0 0 0
7768 48 15 0.0 444.4273514347078 408.5527076696688 2997.2402221390166 0 0 0
7754 48 12 0.0 434.24585541627465 415.48998001064086 2987.0093593567362 0 0 0
7756 48 15 0.0 434.48184076684004 419.7528989444351 2991.8624556746618 0 0 0
7755 48 12 0.0 432.28730632722284 418.85457213620464 2988.3687438256798 0 0 0
7752 48 9 0.0 439.98410375236193 417.540344781297 2982.684418741533 0 0 0
7745 48 15 0.0 436.02636563596263 411.3441169675248 2981.600444704708 0 0 0
10731 66 9 0.0 450.11897102153125 403.7105533861673 2986.583072041117 1 0 0
10730 66 15 0.0 451.512625187317 404.81328847602714 2983.502545852269 1 0 0
16242 100 6 0.0 464.8114507153788 409.40178639351126 2984.46693458783 0 -1 1
7764 48 12 0.0 447.116553879044 417.01536686059035 2991.4136165723758 0 0 0
9134 57 9 0.0 446.83552911271386 408.63235386870167 2988.1057803312897 0 0 0
7765 48 18 0.0 447.9481974837553 415.4258403063576 2993.5502289250353 0 0 0
10734 66 12 0.0 457.8222984605892 406.3679656326823 2991.3824964587916 1 0 0
10732 66 2 0.0 453.18485817434623 402.6756749832796 2987.3269243621694 1 0 0
10733 66 2 0.0 455.2003065657506 406.2426121961383 2987.9651301196163 1 0 0
10735 66 12 0.0 455.9461348912781 405.69600848053943 2994.8946159930856 1 0 0
10736 66 12 0.0 458.8989226223779 406.6165496464363 2997.5535532784493 1 0 0
10737 66 15 0.0 462.59469618847413 407.62587078724744 2997.754460270799 1 0 0
12690 78 12 0.0 461.9363220222204 419.8254560867857 2994.269322313993 1 0 0
12689 78 2 0.0 458.4694491232914 418.1823487352897 2993.7808053958956 1 0 0
12691 78 12 0.0 464.2588409978998 419.35637931363595 2991.423220647467 1 0 0
12676 78 18 0.0 459.10577059675506 412.49458986615485 2993.975307094538 1 0 0
12688 78 2 0.0 454.6858291357933 418.73960642115856 2994.770513561684 1 0 0
16238 100 2 0.0 457.7594659813254 401.86513532763286 2983.819925770684 0 -1 1
7771 48 15 0.0 451.77714885049767 402.27938736447317 2997.948264152352 0 0 0
7769 48 15 0.0 447.0047365289583 405.6342970360776 2998.5223803828712 0 0 0
7770 48 4 0.0 450.3163434373735 405.7714803982269 2998.4279345253044 0 0 0
12674 78 2 0.0 465.02503249476274 413.6574761176965 2996.1375278892588 1 0 0
12687 78 9 0.0 453.83707620987354 417.88011650232914 2998.2187134850246 1 0 0
12677 78 12 0.0 456.5375638996129 412.34566425078043 2996.1706382631346 1 0 0
12675 78 12 0.0 463.0298021540684 411.6136114734957 2994.0920233232114 1 0 0
7767 48 18 0.0 447.13236290474765 409.35068034722707 2994.2966749263765 0 0 0
12678 78 15 0.0 453.9738752660883 410.02856187797346 2998.281181517945 1 0 0
9135 57 4 0.0 448.6696554640925 412.39860386874307 2988.6342556720692 0 0 0
16239 100 12 0.0 460.4910638646135 404.54323268478095 2985.648756440039 0 -1 1
9136 57 12 0.0 452.4195095963675 412.4814963573598 2986.364199880674 0 0 0
9137 57 12 0.0 455.04464932867256 413.4876976375356 2982.955831964809 0 0 0
9138 57 6 0.0 453.24493119394333 416.4986778901583 2981.873050991832 0 0 0
16244 100 15 0.0 467.1164801471353 402.10565248010266 2984.7184581008173 0 -1 1
16243 100 18 0.0 466.5830639231694 406.0860889734576 2985.466154329417 0 -1 1
12706 78 9 0.0 474.58963795158445 402.9780848019346 2999.0598582633897 1 0 0
10738 66 9 0.0 465.466011085407 404.60726567742296 2998.0553037969694 1 0 0
1140 7 17 0.0 474.2609095659083 406.60469898945416 2982.748750276442 -1 -1 0
12698 78 12 0.0 471.1728655498483 411.2443824769368 2990.17847791796 1 0 0
12700 78 9 0.0 477.2177538366353 412.84536380061047 2992.8927260164346 1 0 0
12701 78 17 0.0 474.7162649004957 413.0813136449661 2995.7714676866676 1 0 0
12672 78 15 0.0 470.8632647462634 417.83760268009127 2996.136930337039 1 0 0
1141 7 15 0.0 474.3307282318312 402.8256900848341 2982.117200803911 -1 -1 0
1139 7 9 0.0 478.4468247218979 407.77229030347644 2982.1992454646906 -1 -1 0
12697 78 12 0.0 470.6207316835182 413.8244337537797 2987.257095378055 1 0 0
12696 78 12 0.0 467.390842743791 416.3441839084433 2986.2423953232656 1 0 0
12673 78 9 0.0 468.4545305528462 414.87383623616614 2995.6061503238834 1 0 0
12699 78 15 0.0 474.6779686318565 410.06832517212996 2991.61068709979 1 0 0
12695 78 2 0.0 469.4498824565099 419.2807918266905 2987.237138188118 1 0 0
12702 78 18 0.0 474.409839259433 410.87654120352374 2999.394994745668 1 0 0
12705 78 2 0.0 475.02797958216826 404.2979762477264 2996.1041285841634 1 0 0
12703 78 18 0.0 472.69976608591793 408.19065467516566 2998.7063431540246 1 0 0
12704 78 12 0.0 471.2397156091022 406.8479686534591 2995.3844145702974 1 0 0
12713 78 17 0.0 480.46642931690235 414.7458959196179 2998.684031858944 1 0 0
12714 78 15 0.0 481.82561044673326 415.60560417149173 2994.9529049376583 1 0 0
10739 66 2 0.0 468.85425307065975 404.82506164970687 3000.1394968269146 1 0 0
12277 76 12 0.0 496.3275134471127 401.00358393546213 2992.5265444232514 0 1 -2
12276 76 2 0.0 494.1382328182374 402.5907262784857 2990.2637082114225 0 1 -2
12275 76 9 0.0 495.7136146105473 402.59016967774477 2985.9473914495848 0 1 -2
1117 7 12 0.0 491.0862664986304 416.43480517672396 2993.111341274263 -1 -1 0
1116 7 2 0.0 491.26286949455044 413.0045987186287 2995.9443642789665 -1 -1 0
1118 7 12 0.0 491.4347603808087 419.42208335976375 2991.5624341330836 -1 -1 0
15749 97 2 0.0 499.6113707392614 405.76467508406614 2995.009852844875 0 0 0
15750 97 12 0.0 502.1364109822099 405.4486649919287 2992.4855004576616 0 0 0
15747 97 2 0.0 501.9389693393321 408.2299655099591 2999.526016288118 0 0 0
15748 97 9 0.0 499.33387194988927 405.7587773803163 2999.124352730854 0 0 0
6861 43 2 0.0 495.1651209079178 414.3255795263464 2984.64911220921 -2 0 2
6863 43 9 0.0 500.29326004562154 410.02006335865894 2984.681392455051 -2 0 2
6862 43 6 0.0 497.40926997091054 412.06599286791 2983.122577100928 -2 0 2
6860 43 9 0.0 495.87011653146317 418.0226134498986 2985.777163876496 -2 0 2
6858 43 12 0.0 501.86412821108746 419.52197463006223 2985.1192788386625 -2 0 2
1115 7 2 0.0 488.2306480667092 414.31120441664154 2998.0051663326158 -1 -1 0
5185 32 12 0.0 494.6485433777423 415.6031809137278 2999.6653358511394 0 0 1
5186 32 12 0.0 497.8777354139794 414.43834186075264 3000.6048117203923 0 0 1
1127 7 9 0.0 485.4684155918379 418.2451398021603 2981.7732020388717 -1 -1 0
6859 43 15 0.0 498.2465274013339 419.70157365298365 2983.51309170589 -2 0 2
1126 7 15 0.0 489.6565966587742 417.29400952473696 2983.816380978451 -1 -1 0
12251 76 15 0.0 515.2166191501055 411.40487605200855 2987.52441472895 0 1 -2
12252 76 12 0.0 516.3104156906311 407.2141455912693 2985.0528857653458 0 1 -2
12253 76 12 0.0 514.9930004156399 406.19533071157326 2982.0838424702006 0 1 -2
12249 76 2 0.0 518.6520477215201 408.73568426019193 2993.1972158624876 0 1 -2
12248 76 12 0.0 516.6520274485529 407.8053422306879 2996.90416418318 0 1 -2
12247 76 2 0.0 518.4227465507345 404.5673507299772 2995.933101967441 0 1 -2
12246 76 18 0.0 516.4468485615262 401.60903307409166 2996.712037761475 0 1 -2
15755 97 15 0.0 504.86087927097407 402.76420995468044 2985.1416256711423 0 0 0
15754 97 18 0.0 507.21132373718314 404.4647605524768 2987.0760662806147 0 0 0
12250 76 9 0.0 518.3235583675089 411.3361147819657 2990.2614255013314 0 1 -2
15751 97 12 0.0 504.36392393991093 402.5558893391095 2994.988042323552 0 0 0
15753 97 6 0.0 506.79195935634806 402.1680795642598 2989.6164477582224 0 0 0
15752 97 18 0.0 507.2353710499858 401.2837161780447 2993.056880995385 0 0 0
6851 43 7 -1.0 510.94463763926217 414.074822870898 2986.4575485102737 -2 0 2
6850 43 17 0.0 513.599653817256 416.6712727631774 2985.6847148238626 -2 0 2
6849 43 15 0.0 514.000641985092 417.83921870675505 2989.7584234322026 -2 0 2
1078 7 9 0.0 509.9650100893765 419.99957856650707 2997.745325789777 -1 -1 0
6852 43 9 0.0 507.2322337699966 413.0689998349985 2988.053986096544 -2 0 2
9876 61 15 0.0 520.5678744643592 413.2710946431514 2998.2058401932804 -1 0 0
6853 43 4 0.0 506.9965122994055 416.897774473358 2989.523908348696 -2 0 2
9875 61 15 0.0 519.9602158209877 416.46498093104447 2999.553003513613 -1 0 0
9874 61 12 0.0 521.3240465430388 420.01865466226565 3000.1092651165914 -1 0 0
12254 76 15 0.0 512.0821222206546 403.51286047863306 2982.404458321929 0 1 -2
6864 43 18 0.0 503.99080508336385 409.11757712280996 2984.0964809899624 -2 0 2
9878 61 18 0.0 525.3083542737895 407.74833521648947 3000.008440130957 -1 0 0
9879 61 2 0.0 523.7733885412895 404.86004617613617 2998.1815732057385 -1 0 0
9880 61 9 0.0 523.8797557210537 404.4915861844068 2994.2835294371253 -1 0 0
9881 61 2 0.0 525.2745396278272 407.69703024466213 2993.8203825910055 -1 0 0
9877 61 9 0.0 523.2810754688655 411.28393523554644 3000.162617537732 -1 0 0
9882 61 12 0.0 528.1532554523276 410.3655882717561 2994.014593313153 -1 0 0
12229 76 17 0.0 540.5989175483935 401.7482591275721 2999.055428068625 0 1 -2
12228 76 15 0.0 537.690745543309 402.68271125921154 2997.3005135091926 0 1 -2
12227 76 6 0.0 536.9596465804586 405.3037907653596 3000.119969353788 0 1 -2
9884 61 18 0.0 535.4734972226656 408.7191342165708 2992.6305070541193 -1 0 0
9886 61 18 0.0 536.2061220816267 410.44630510790887 2985.27234397075 -1 0 0
9885 61 6 0.0 536.1141883390374 408.58042867293125 2988.6815682342176 -1 0 0
9887 61 15 0.0 534.9344784398386 413.92629863074853 2985.915740702902 -1 0 0
9883 61 12 0.0 531.8080030334788 409.28185354486874 2993.6559477251303 -1 0 0
9888 61 15 0.0 532.7392363184795 416.61899443399335 2987.570368434711 -1 0 0
9889 61 4 0.0 530.0324851384257 414.68439684090094 2987.3380267524753 -1 0 0
9860 61 49 0.0 531.757765963436 417.87402468961227 2992.5102134383765 -1 0 0
9861 61 9 0.0 531.6575801593067 417.8960362786567 2996.8755654993747 -1 0 0
9859 61 2 0.0 529.3112748268832 419.3076065089621 2990.7728458978468 -1 0 0
9890 61 15 0.0 530.1022988039399 411.3680480413221 2987.6590896973794 -1 0 0
9891 61 2 0.0 530.8584351769832 407.56895901831706 2987.332620152733 -1 0 0
9862 61 2 0.0 534.681520499802 419.36522576735797 2996.5100557668948 -1 0 0
9893 61 9 0.0 536.0380153441715 403.901875794557 2984.2605513784983 -1 0 0
9892 61 15 0.0 532.9626117556638 406.19291602394424 2985.115920437204 -1 0 0
15538 96 15 0.0 550.7647424338106 402.78966951122493 2997.1070421666345 0 1 0
313 2 17 0.0 550.9290350215742 419.0846091477569 2992.5536583229336 -1 0 0
13539 84 6 0.0 552.775336543689 401.210999361152 2985.3600702468384 0 0 -1
309 2 12 0.0 552.5634511414723 409.1568015728083 2984.044130181896 -1 0 0
310 2 12 0.0 551.5924723537439 411.4983011427431 2986.9846286984775 -1 0 0
311 2 15 0.0 553.5863924451967 415.0296423386037 2986.604773510448 -1 0 0
312 2 9 0.0 552.8370477000246 418.29855162537075 2989.1186017562027 -1 0 0
315 2 18 0.0 553.8678573503726 418.56793579056466 2999.7252408257013 -1 0 0
13538 84 12 0.0 555.8574668535373 402.5003111923722 2983.957379516652 0 0 -1
13537 84 12 0.0 557.0586534745714 404.63558660945023 2982.232929587825 0 0 -1
308 2 12 0.0 549.7654875358166 406.5024245991303 2982.8877277317515 -1 0 0
1326 9 2 0.0 543.6976871524887 417.1074513332971 2982.652540943635 -1 0 0
6368 40 4 0.0 575.6319786185177 410.6575862570521 2990.2841168842906 0 0 1
6369 40 12 0.0 578.4640766710438 413.4198468679755 2991.8115804986774 0 0 1
6370 40 15 0.0 578.5824286880356 417.6542576194349 2992.5473356588564 0 0 1
6371 40 9 0.0 575.3449883695394 418.0549484321118 2989.7465650266067 0 0 1
6372 40 2 0.0 572.7732028984103 418.404788906936 2986.9680988235505 0 0 1
6367 40 6 0.0 576.6242598201632 406.9584561839697 2992.1861715052078 0 0 1
6373 40 6 0.0 571.1869424655904 419.5688541678755 2983.7281988618406 0 0 1
6365 40 12 0.0 577.445494834895 408.15703076275753 2998.4131392253903 0 0 1
6366 40 12 0.0 578.7735543428553 407.989230784526 2995.1968114099127 0 0 1
6363 40 9 0.0 577.2333781351433 414.7747718946166 3000.1048778315917 0 0 1
7736 48 9 0.0 596.8412254428533 415.4264589068897 2990.7255200073682 -1 0 0
2554 16 4 0.0 587.9350849322741 402.940550424348 2985.6576478076795 -1 0 0
2558 16 9 0.0 587.922936708407 404.19630374002963 2995.3950675430874 -1 0 0
2557 16 15 0.0 585.2446629539913 402.3106220258205 2993.3712305127374 -1 0 0
2559 16 2 0.0 590.3816627737101 403.09637814913106 2997.3989200213114 -1 0 0
2570 16 18 0.0 597.1811536686316 407.46195247159204 2990.5825759880177 -1 0 0
2568 16 2 0.0 597.5329338533072 402.6399642978732 2994.4122184332973 -1 0 0
2569 16 12 0.0 599.7535267795367 405.3650837911187 2993.280761949909 -1 0 0
2553 16 15 0.0 586.5943602701425 405.60739956578885 2984.114173419374 -1 0 0
2571 16 12 0.0 593.6230166078699 408.5644024964088 2990.89624828765 -1 0 0
2567 16 9 0.0 594.6200126708375 401.5490926235211 2991.958622287969 -1 0 0
2572 16 15 0.0 593.9063606261022 411.67127432450786 2993.4731820733605 -1 0 0
7735 48 2 0.0 598.8262793840515 417.8964317473667 2989.135152540927 -1 0 0
2574 16 15 0.0 591.8061322296744 410.74398015902443 2999.214684504764 -1 0 0
2575 16 9 0.0 589.1769719795436 413.63526721367174 2999.7637198434263 -1 0 0
2573 16 2 0.0 592.4469506787245 409.1257748982616 2996.0500883688514 -1 0 0
2576 16 15 0.0 585.3555823793761 414.7758277648497 3000.223354249233 -1 0 0
7760 48 2 0.0 443.8444721299451 426.83166539838123 2991.327982311643 0 0 0
7759 48 18 0.0 440.04758365932383 427.1939668317166 2992.3068545334886 0 0 0
7757 48 15 0.0 437.91184181966383 420.8607487434042 2993.0909645824945 0 0 0
14574 90 2 0.0 434.95219679429334 438.98891970848166 2989.7510212240586 0 0 -1
14573 90 9 0.0 433.7272443973379 436.7166862203936 2992.885903371673 0 0 -1
14572 90 2 0.0 430.79250507704245 436.1017420791272 2996.229963768576 0 0 -1
7758 48 9 0.0 439.1140045253707 423.459813605366 2991.8102012304344 0 0 0
7761 48 9 0.0 445.67408892836534 425.4439547511593 2994.6940823532877 0 0 0
14571 90 4 0.0 426.63130089739883 435.2045156058272 2996.209443431456 0 0 -1
14585 90 4 0.0 442.70753576407185 434.1922394062403 2998.003417457386 0 0 -1
9152 57 2 0.0 440.7350518500474 426.502210816819 2985.3245732401792 0 0 0
9153 57 9 0.0 439.52993439159803 430.1033786374418 2986.1776588577154 0 0 0
14587 90 49 0.0 443.83408279533717 436.5332908928603 2993.5860745301766 0 0 -1
2587 16 15 0.0 428.0849214933761 432.7591462731613 2989.6871154726095 0 0 0
2588 16 9 0.0 427.9189926502943 433.55140564252645 2986.239846848684 0 0 0
14570 90 17 0.0 426.5776320535721 439.0720100465987 2993.9201030271515 0 0 -1
9151 57 12 0.0 444.1683303161396 425.9423471480279 2984.9204921897826 0 0 0
9154 57 15 0.0 437.7875980821796 430.5020448792562 2982.7692363651727 0 0 0
7762 48 2 0.0 446.8317252888044 422.26357359216587 2993.081148876668 0 0 0
14586 90 2 0.0 445.9139981666673 437.1131076967255 2997.159484463713 0 0 -1
14592 90 12 0.0 454.4753633045638 429.74287788345123 2995.7225132850463 0 0 -1
14593 90 15 0.0 451.0752162234862 428.36705785874057 2997.4932086762065 0 0 -1
14588 90 9 0.0 446.6991859263536 437.9870101016383 2991.6785821248554 0 0 -1
14590 90 15 0.0 448.19217722292257 431.9393557185863 2995.067186313777 0 0 -1
14589 90 2 0.0 447.724230131439 434.55004735446295 2992.075091370039 0 0 -1
14591 90 15 0.0 452.0633012613782 431.9662803168537 2993.138998832297 0 0 -1
15361 95 45 0.0 448.83691871136523 438.68993745140676 2986.280177832626 1 0 1
15362 95 2 0.0 447.51842633310014 436.71845676598167 2982.726312892815 1 0 1