LAMMPS data file via write_data, version 21 Jul 2020, timestep = 10000

16300 atoms
54 atom types
16200 bonds
2 bond types
2600 angles
2 angle types

423.0 607.25 xlo xhi
379.0 563.25 ylo yhi
2977.0 3161.25 zlo zhi

Masses

1 131.2
2 57.05
3 128.2
4 101.1
5 156.2
6 71.08
7 115.1
8 129.1
9 163.2
10 99.06999999999999
11 113.2
12 128.1
13 186.2
14 147.2
15 87.08
16 137.1
17 114.1
18 97.12
19 103.1
20 113.2
21 131.2
22 57.05
23 128.2
24 101.1
25 156.2
26 71.08
27 115.1
28 129.1
29 163.2
30 99.06999999999999
31 113.2
32 128.1
33 186.2
34 147.2
35 87.08
36 137.1
37 114.1
38 97.12
39 103.1
40 113.2
41 329.2
42 305.2
43 345.2
44 306.2
45 87.08
46 107.44
47 87.08
48 107.48
49 57.05
50 86.92
51 86.92
52 86.92
53 107.44
54 107.48

Bond Coeffs # harmonic

1 2.39 3.81
2 2.39 5

Angle Coeffs # harmonic

1 0.0001 180
2 5 180

Atoms # full

3005 19 4 0.0 430.37542558547585 392.05026555739533 2986.5593855310817 0 0 1
3007 19 12 0.0 424.88383535225427 388.75605264730586 2985.952906879036 0 0 1
3006 19 18 0.0 427.57185448069913 389.11033379203474 2987.5795003646285 0 0 1
3004 19 15 0.0 427.82436392631195 394.6133474203104 2986.1354057382223 0 0 1
3008 19 2 0.0 425.159306454651 387.1156932065778 2981.788508816088 0 0 1
7515 47 9 0.0 435.2169804633245 384.8161406850666 2996.660225988749 -1 1 0
7514 47 6 0.0 436.99275363170716 387.35816915844117 2993.7511165013234 -1 1 0
7513 47 2 0.0 436.308325388129 388.4120186543265 2990.6101550531957 -1 1 0
10342 64 12 0.0 435.92929377379716 387.54058863570856 2980.257815667374 0 1 1
3003 19 12 0.0 427.79709697266946 398.46583032566497 2985.719190610983 0 0 1
7511 47 15 0.0 438.84107252168235 385.9554696932365 2985.215729261131 -1 1 0
7542 47 15 0.0 440.12195067883266 394.49057907368046 2992.010321212768 -1 1 0
7541 47 12 0.0 440.62192027973464 397.61769185407746 2994.135296392602 -1 1 0
7509 47 4 0.0 436.7494978589441 382.51408935191944 2989.521509064032 -1 1 0
7510 47 12 0.0 436.0859329125193 382.81531492989905 2986.1823270380655 -1 1 0
8038 50 2 0.0 425.45790464648655 382.8524614810304 2996.3254900946717 0 0 1
10341 64 18 0.0 433.5636945823278 389.13955990436096 2978.586811478134 0 1 1
10340 64 4 0.0 431.79310884705563 392.3918232052442 2980.854199806316 0 1 1
10339 64 15 0.0 431.7621638634215 394.13186128061164 2977.0670955349256 0 1 1
3009 19 9 0.0 425.3403246992104 385.7072183064895 2978.214330751514 0 0 1
7512 47 9 0.0 439.40752583264475 388.5073217245956 2988.5523679079415 -1 1 0
7508 47 6 0.0 435.74338825943073 379.20452386607576 2991.3386949224623 -1 1 0
7507 47 12 0.0 432.1190761690166 380.44639444733986 2992.5120512431213 -1 1 0
7543 47 4 0.0 440.3987180436933 391.4961854242129 2993.877637135495 -1 1 0
7544 47 7 -1.0 440.18904547080297 389.2626712098809 2997.3764131570656 -1 1 0
7545 47 4 0.0 442.7426203899108 387.41976895755084 2997.310655068505 -1 1 0
10343 64 2 0.0 435.09522207870833 384.07828091119876 2978.7672263846002 0 1 1
5510 34 15 0.0 458.7657160143366 387.81269033124005 2980.5313049831066 1 -1 0
5509 34 9 0.0 457.81715690105733 388.4121617745273 2984.2597248997104 1 -1 0
5508 34 15 0.0 454.81726572606766 391.2321576025338 2984.5689067846515 1 -1 0
5517 34 2 0.0 455.0652663168723 388.69672791362115 2990.697547127086 1 -1 0
5518 34 12 0.0 452.54131782834037 389.00192165349694 2992.589005716474 1 -1 0
5516 34 2 0.0 458.57924358590463 389.77877802891163 2989.534489585214 1 -1 0
5513 34 18 0.0 463.7776482913363 383.76886563938706 2986.9039316732114 1 -1 0
5515 34 9 0.0 460.6722529934825 386.7280199906472 2991.225427316416 1 -1 0
5514 34 15 0.0 462.6928205333758 382.62512101061276 2990.1342218267514 1 -1 0
5512 34 12 0.0 463.62552634056436 384.17414207722226 2982.8086692531665 1 -1 0
5511 34 12 0.0 462.6800318653124 387.18196792096626 2981.410353077107 1 -1 0
5519 34 12 0.0 449.063454721646 389.7816909954923 2995.9603182673736 1 -1 0
5520 34 12 0.0 445.9173561101961 392.44862598781793 2995.8738872788376 1 -1 0
5521 34 15 0.0 447.06457678032416 395.5409488760926 2993.688898286893 1 -1 0
5522 34 9 0.0 446.6180409631511 398.5732295226698 2991.771990449373 1 -1 0
489 3 15 0.0 457.4988291603382 382.5668774593071 2982.7351415736407 0 -1 0
5507 34 2 0.0 450.3932189684179 391.58674007010876 2983.6453513874912 1 -1 0
5506 34 15 0.0 449.1365244464798 392.2485262922309 2980.632698520832 1 -1 0
5523 34 2 0.0 448.21156831285026 396.7537729178763 2988.3002140688322 1 -1 0
5524 34 12 0.0 452.20302013453534 397.35571241427624 2987.7884826721115 1 -1 0
5527 34 15 0.0 454.55447941055417 398.16092405088114 2979.6927390448122 1 -1 0
275 2 15 0.0 470.5794107212968 383.89085642253355 2984.2229094676 0 0 0
276 2 9 0.0 472.0963891075227 385.3550758787894 2986.2682315246475 0 0 0
277 2 2 0.0 471.1432972421065 388.645599190382 2984.553673552093 0 0 0
278 2 15 0.0 472.4313833515219 390.9190317577179 2981.810885262897 0 0 0
280 2 15 0.0 474.1668598630435 399.0503294233125 2980.476559186337 0 0 0
279 2 15 0.0 472.40938907667663 395.43588440427385 2981.5375390010636 0 0 0
274 2 2 0.0 472.5848172028136 382.7864471627816 2980.9016814748966 0 0 0
273 2 15 0.0 469.871036184681 382.811190840753 2978.2333435831065 0 0 0
306 2 9 0.0 491.57884118435396 398.5995893330756 2983.9360564848457 0 0 0
305 2 15 0.0 492.8355058198941 396.01239172450363 2986.233013551709 0 0 0
304 2 12 0.0 495.4142402883615 394.0437151789197 2988.0086474054397 0 0 0
292 2 15 0.0 495.88174942003974 391.65986628443505 2982.726427650645 0 0 0
293 2 9 0.0 499.33110457195926 388.7792246494148 2983.4986477170223 0 0 0
303 2 12 0.0 499.1610119763814 396.0103759168118 2988.7106001461443 0 0 0
302 2 12 0.0 501.33505898332317 393.2366790659004 2991.4435140046944 0 0 0
294 2 15 0.0 498.01291277131713 385.2528301337278 2984.4187070886237 0 0 0
296 2 12 0.0 493.3359178441605 384.1001180709258 2989.1303409277334 0 0 0
299 2 9 0.0 500.2572747483277 387.78908469423874 2995.7251800825834 0 0 0
301 2 2 0.0 499.01703480537515 394.43785005380397 2995.101632412244 0 0 0
300 2 2 0.0 501.37759194926474 391.29982820988573 2996.062221074325 0 0 0
291 2 2 0.0 491.9856798908218 391.52105908897977 2981.7480897560545 0 0 0
290 2 15 0.0 493.0940299311523 392.1980823369607 2978.3023584134494 0 0 0
295 2 12 0.0 494.2313141226543 385.2607227309573 2985.6681912070876 0 0 0
165 2 6 0.0 499.0440721137541 379.75398077743404 2995.2000257610202 0 0 0
164 2 1 0.0 501.5469986157597 380.3946175625733 2991.6833183912627 0 0 0
297 2 18 0.0 493.8571458713984 384.6433577058991 2993.0026279323756 0 0 0
298 2 15 0.0 496.00086044329254 385.0216051192588 2996.1351172029035 0 0 0
287 2 12 0.0 484.6764494799399 397.7252230079749 2978.5990129459283 0 0 0
288 2 18 0.0 488.2653337495477 397.3785110019688 2978.3537335021847 0 0 0
289 2 12 0.0 491.0607505107849 395.6028174666267 2977.4399030306513 0 0 0
14662 90 9 0.0 511.97783629488725 396.4231480390886 2991.5225404741564 0 -1 0
14663 90 2 0.0 508.7726954831754 394.14534927805755 2991.5487195386595 0 -1 0
14664 90 12 0.0 506.335854784736 391.6545086473112 2988.769368758225 0 -1 0
14667 90 12 0.0 513.277004101883 398.75833319280696 2984.2690458736975 0 -1 0
14665 90 12 0.0 508.8442783951643 393.36810356338833 2985.9837008000973 0 -1 0
14666 90 17 0.0 511.73830835644 394.8439829051439 2984.4520661267497 0 -1 0
12021 74 9 0.0 548.6432348794954 381.53580373451064 2984.613267661179 0 0 0
12018 74 15 0.0 555.1987597966399 385.05340980397125 2987.182651036914 0 0 0
12019 74 15 0.0 553.8808546474036 382.0349823071094 2989.2415246761825 0 0 0
12020 74 15 0.0 549.5810392304461 383.01372087053636 2988.139389390562 0 0 0
12023 74 12 0.0 554.9415844893504 385.04426355922504 2982.039298500813 0 0 0
12022 74 2 0.0 550.4311807680995 383.66144956190965 2981.1438160356633 0 0 0
3036 19 12 0.0 564.4028734743504 393.10566115374 2980.8582709754082 -1 0 1
12024 74 18 0.0 554.728300926952 387.905649565608 2979.0348359579866 0 0 0
12017 74 12 0.0 559.0115226513351 386.1167363129036 2986.826169435439 0 0 0
3037 19 12 0.0 563.224134970206 390.31751504152567 2983.0584984617076 -1 0 1
3038 19 18 0.0 564.9185243822685 388.81202192775385 2986.249525710385 -1 0 1
12015 74 15 0.0 561.2406234604487 387.0284071694649 2992.8620328154584 0 0 0
12016 74 15 0.0 560.4113050516346 387.96974082456336 2989.292358877673 0 0 0
3039 19 6 0.0 565.5646484257209 391.11622640905443 2988.724313099717 -1 0 1
12014 74 15 0.0 563.9481359443739 384.5029618025357 2990.736831841938 0 0 0
12013 74 2 0.0 564.4372280626765 380.8298152904021 2992.199374799478 0 0 0
12011 74 15 0.0 558.012342602616 380.01681261815656 2992.6466855385183 0 0 0
12012 74 9 0.0 561.6237011556259 380.0629790509963 2994.3689277059852 0 0 0
11970 74 4 0.0 562.1955933026079 391.5095959490151 2995.2538993128937 0 0 0
11969 74 15 0.0 564.3044911348766 394.3140274458438 2996.1611907892643 0 0 0
3035 19 2 0.0 566.8270083755692 391.4299788751439 2977.8127877023644 -1 0 1
11964 74 2 0.0 572.077427529832 397.78289890339204 2997.188545186131 0 0 0
3041 19 15 0.0 569.0944796295794 392.50624572591266 2993.7548389441763 -1 0 1
3040 19 18 0.0 568.6626614954848 390.67706563214705 2990.92209174121 -1 0 1
3042 19 15 0.0 572.3369925725672 390.9885461503 2994.6035847515955 -1 0 1
11959 74 48 0.0 582.5288995696567 395.1313125420533 2990.790669070801 0 0 0
8534 53 48 0.0 582.3447757737297 388.5803744077852 2993.757416488436 -1 0 1
11958 74 48 0.0 585.938662606125 395.7490787776381 2989.6191549656182 0 0 0
5440 34 48 0.0 579.765441007364 383.7003604929938 2993.6584438053223 0 -1 0
5441 34 12 0.0 577.2313674224806 385.42944372537016 2990.750881640114 0 -1 0
5439 34 48 0.0 582.0643228356007 383.45853248850057 2996.313102458424 0 -1 0
5442 34 17 0.0 579.7943293964679 385.6403601212799 2987.8680488865493 0 -1 0
3047 19 9 0.0 572.7656655363196 381.2409006069313 2997.0828907510945 -1 0 1
11960 74 48 0.0 580.1463323065984 393.85722341780803 2993.6116469745043 0 0 0
11961 74 12 0.0 578.7253976036823 394.4371524470655 2996.1124406439512 0 0 0
8535 53 48 0.0 583.2691779038696 389.1528497676856 2990.2699759915054 -1 0 1
5443 34 4 0.0 579.0140720118025 385.03041751017724 2984.180011639858 0 -1 0
5445 34 9 0.0 575.6254022493399 382.27188756379445 2979.329323830139 0 -1 0
5444 34 2 0.0 575.4393062502547 384.6654060085378 2983.009249617388 0 -1 0
8536 53 48 0.0 585.6733181322152 390.0551367088673 2987.4617609500065 -1 0 1
8539 53 17 0.0 586.3078722904042 390.4722698943425 2977.1789139320445 -1 0 1
10326 64 54 0.0 585.9766478959934 393.3284688156648 2995.571889383171 -1 1 1
10988 68 2 0.0 582.2918244256621 380.0909688267122 2978.3426047056255 0 0 0
10989 68 4 0.0 586.0843891065003 380.88933538398345 2978.055532290129 0 0 0
10334 64 2 0.0 601.869559658352 388.2128819843361 2978.963912663903 -1 1 1
10333 64 4 0.0 603.7974356385869 389.1186209157265 2982.820074784187 -1 1 1
8039 50 12 0.0 606.9517092829808 385.96321348221437 2995.507815946858 -1 0 1
11879 73 9 0.0 604.8299300462807 398.717403033177 2979.4159107042983 -1 0 1
11957 74 48 0.0 589.3277327745798 394.9030469307512 2988.4459472251024 0 0 0
11956 74 54 0.0 592.5322263739972 393.7497885018005 2987.930138895537 0 0 0
10980 68 48 0.0 587.0292972215757 386.4344472771493 2995.8360563677925 0 0 0
10981 68 48 0.0 588.0413367344108 384.9839593141828 2993.6733393443587 0 0 0
10332 64 17 0.0 602.617996750241 385.65314114047493 2984.0679496332546 -1 1 1
8548 53 18 0.0 594.1966321634109 384.33194233727806 2982.7625967375043 -1 0 1
10327 64 48 0.0 587.7328749810558 391.38394167448564 2993.607896915634 -1 1 1
8537 53 48 0.0 587.1579585892314 391.10937870484673 2984.5689643539363 -1 0 1
8538 53 12 0.0 587.3100470569655 389.81933603234245 2980.8377998829524 -1 0 1
8043 50 48 0.0 596.4442523844943 390.5584204321151 2993.906218248367 -1 0 1
10330 64 48 0.0 595.4102311791667 387.0596333176214 2988.294910513745 -1 1 1
10331 64 12 0.0 599.5508330741955 385.91449439425355 2986.861080930647 -1 1 1
10329 64 48 0.0 593.3043280376191 387.93830833555444 2990.0910282094787 -1 1 1
10328 64 48 0.0 589.6853543042382 389.9290693018927 2991.2985099205152 -1 1 1
8044 50 54 0.0 593.7135978810088 393.2793524584743 2993.211108462051 -1 0 1
8045 50 48 0.0 591.6111431678939 395.25744197565456 2993.471649996917 -1 0 1
10166 63 48 0.0 593.0699971911856 385.410201055793 2995.269298451479 -1 0 1
10982 68 48 0.0 589.1906753615342 384.22860028683 2989.743220576795 0 0 0
11955 74 48 0.0 595.7187235151307 393.5290179364345 2987.9157971677732 0 0 0
11953 74 48 0.0 602.88670515787 391.75769670736736 2989.725892866621 0 0 0
11954 74 48 0.0 599.2018680325707 392.9386249051335 2989.0899988768356 0 0 0
8549 53 12 0.0 596.0995971574073 380.95194371421684 2984.6783339239264 -1 0 1
8042 50 48 0.0 598.6312737037485 388.36092664033106 2994.6635738077675 -1 0 1
11952 74 15 0.0 603.9610330942135 395.7990260060281 2989.9556201333194 0 0 0
8547 53 4 0.0 595.3724681625174 387.25373479561176 2981.034942334171 -1 0 1
8546 53 15 0.0 593.905021198555 391.8310653487074 2981.3747762772896 -1 0 1
8540 53 4 0.0 588.6374650285634 393.99266139103656 2977.0827044538773 -1 0 1
10168 63 12 0.0 595.5430847301134 380.4031451523038 2990.527278969599 -1 0 1
10983 68 12 0.0 588.9840983897468 381.43735740749605 2987.604091716391 0 0 0
10165 63 48 0.0 591.8170318760135 388.2831883318483 2996.421956236504 -1 0 1
3973 25 48 0.0 590.4357840842918 381.2016870307711 2997.4400918354086 -1 0 0
10984 68 17 0.0 587.9609800464787 379.6465667745637 2985.2568892126706 0 0 0
10167 63 48 0.0 594.4340621602473 383.47528317887526 2992.8105284744493 -1 0 1
9348 58 54 0.0 599.901917453748 395.78938921903915 2993.9131712790117 -1 0 1
8046 50 48 0.0 589.7849038291495 396.9430434336997 2993.7878151641744 -1 0 1
11951 74 12 0.0 602.2253566684706 398.868278697259 2987.8446476223207 0 0 0
8040 50 15 0.0 603.7831553776921 383.6254082176335 2996.0026125165905 -1 0 1
9349 58 48 0.0 601.1415337485942 393.8200541761684 2996.219603566818 -1 0 1
8041 50 48 0.0 599.8946401273222 385.84987591745426 2995.3548334531806 -1 0 1
8545 53 12 0.0 597.1119159195068 393.0814582581141 2981.4792541740007 -1 0 1
8544 53 4 0.0 597.0972751354864 393.75374307355423 2977.937687619584 -1 0 1
9347 58 48 0.0 597.079127697408 397.67139394418876 2991.7827590307725 -1 0 1
9346 58 48 0.0 593.5856621252947 398.58818598135923 2990.488197641551 -1 0 1
3010 19 2 0.0 606.296840106776 383.27544945605484 2978.4603973928765 -1 0 1
3011 19 51 0.0 605.8708069347954 379.77675167766347 2980.280230240801 -1 0 1
10990 68 12 0.0 587.7728912768148 384.8928425997442 2977.159117801542 0 0 0
3002 19 4 0.0 426.9584861348631 400.8014887732288 2983.1365266216003 0 0 1
3000 19 9 0.0 423.70989693451884 405.1239355666411 2986.0482367600052 0 0 1
7533 47 12 0.0 431.96340831774654 401.8124648226774 2993.5024176073066 -1 1 0
7532 47 2 0.0 428.0898676419046 403.93077916560327 2994.3657043116013 -1 1 0
13987 86 12 0.0 425.9906834256334 415.3611279272459 2977.1827489847906 0 -1 0
13986 86 15 0.0 428.8191705996054 417.7862957949945 2977.216182836679 0 -1 0
13991 86 9 0.0 423.487838882971 415.0350676258858 2987.8760623270896 0 -1 0
2999 19 2 0.0 424.1664264431681 402.9882048599852 2989.2299648295775 0 0 1
13992 86 2 0.0 424.13930358296267 418.35713873806867 2987.927252560153 0 -1 0
13988 86 12 0.0 423.82197026088073 414.500615782844 2980.5134052288445 0 -1 0
13989 86 18 0.0 424.0227724005897 410.86075539210884 2982.3912736802054 0 -1 0
7530 47 18 0.0 425.1326922124333 399.74841748401866 2996.833501310174 -1 1 0
7534 47 12 0.0 434.61325560907324 403.79712197428404 2994.2137466656977 -1 1 0
12113 75 2 0.0 434.73120273053013 417.08923893095243 2996.0698978741425 1 0 0
8686 54 4 0.0 425.5007652716009 413.7165006590047 2996.6728205692016 0 0 1
5526 34 12 0.0 455.7576828999248 399.4785556634956 2983.491245229847 1 -1 0
5525 34 12 0.0 452.904484361298 400.3037228121118 2985.9191689413306 1 -1 0
13979 86 12 0.0 446.2031191815433 419.6970055391051 2980.8535433110924 0 -1 0
13335 82 12 0.0 473.00923948405955 409.6780411189856 2982.1847126630764 0 0 0
13336 82 12 0.0 474.7624089670933 406.89195088984496 2979.681651449506 0 0 0
13334 82 15 0.0 474.6282068841709 412.59869374340684 2981.068336264695 0 0 0
13333 82 9 0.0 473.611145066469 413.73378819590005 2977.3399241134853 0 0 0
311 2 15 0.0 481.204316634304 409.1837046282289 2989.1474603412707 0 0 0
13340 82 2 0.0 484.4008987503466 411.28099378119254 2979.0139618385756 0 0 0
13339 82 9 0.0 482.7312961034709 408.30120205212364 2978.923730337465 0 0 0
314 2 18 0.0 482.98884775987597 409.4800707648576 2996.975710971505 0 0 0
310 2 12 0.0 483.8547774255036 405.54873075993044 2989.495467032405 0 0 0
312 2 9 0.0 479.00632278764283 409.9876471576117 2991.737735549368 0 0 0
313 2 17 0.0 480.23951788060833 411.54779023034195 2995.0880783354382 0 0 0
5538 34 17 0.0 465.59780141725355 413.40449569007006 2977.605587756484 1 -1 0
5539 34 12 0.0 465.0066962266545 417.50374974932555 2978.313732285765 1 -1 0
5540 34 9 0.0 466.5780235374312 419.46169774147023 2980.9780826762467 1 -1 0
307 2 2 0.0 490.86793631794893 401.9515767615907 2986.5036988196107 0 0 0
308 2 12 0.0 487.68031855739923 403.7875098240295 2985.3774292729395 0 0 0
309 2 12 0.0 486.3714987014454 402.5938706594868 2988.989091666033 0 0 0
317 2 2 0.0 491.09268788195715 406.36478409087516 2995.98411840435 0 0 0
316 2 12 0.0 490.2640382228803 409.9981864813848 2995.908958763121 0 0 0
315 2 18 0.0 486.5091381882616 409.02430291704036 2997.095689143127 0 0 0
13341 82 2 0.0 484.72448039439524 415.55222949695536 2979.359561030255 0 0 0
13342 82 12 0.0 486.972266975231 417.925073818572 2977.838213403219 0 0 0
14655 90 15 0.0 502.5119476858372 402.705165458366 2979.4916014563364 0 -1 0
8150 50 15 0.0 499.5817970453549 419.82487136487197 2984.78844066979 -1 0 1
14659 90 18 0.0 512.9629086224088 405.53556300005914 2988.7610677571934 0 -1 0
14660 90 12 0.0 513.01491007048 402.1822396652895 2989.1078154366087 0 -1 0
14661 90 2 0.0 510.25543825772155 400.0285545268115 2990.031352324941 0 -1 0
14658 90 18 0.0 510.5529631218003 408.47933089457496 2986.425992404687 0 -1 0
14657 90 17 0.0 507.8419811892992 407.39854302173285 2983.464624279774 0 -1 0
14656 90 9 0.0 505.8277514464064 404.06195080444854 2982.1409379768306 0 -1 0
14668 90 9 0.0 512.7975880990011 401.4836616886111 2981.6005678755528 0 -1 0
14669 90 17 0.0 512.6866745597072 402.8917283931509 2978.0449322912073 0 -1 0
2116 13 12 0.0 525.727546434566 419.2069038966956 2978.3154411666123 1 0 0
2115 13 17 0.0 525.7298414290549 418.4730612320187 2982.2785104772324 1 0 0
8059 50 18 0.0 560.3909977691649 406.63706877823165 2977.6360063067987 -1 0 1
8058 50 4 0.0 560.8226445892008 403.5405636997481 2979.538800209606 -1 0 1
8057 50 15 0.0 562.0243846953774 402.0142541425858 2983.6111468116696 -1 0 1
8089 50 12 0.0 548.0105919102657 408.67192917061357 2977.7634796325374 -1 0 1
8088 50 2 0.0 548.189103370589 407.23118655281587 2981.312691336807 -1 0 1
8087 50 9 0.0 551.2112300221193 407.4693445729354 2984.026647773826 -1 0 1
8079 50 2 0.0 565.9227667477744 415.9615654879784 2992.492818422569 -1 0 1
8080 50 12 0.0 564.0481613021543 413.2378005182499 2991.162033272273 -1 0 1
8081 50 12 0.0 561.2120389125057 411.5050127061733 2991.24831521557 -1 0 1
8082 50 15 0.0 559.9271633628355 412.8887169212401 2987.772896724402 -1 0 1
8083 50 15 0.0 558.0897992678631 416.5134250615018 2988.1379166689817 -1 0 1
8085 50 18 0.0 553.3681667680232 410.59070208958224 2989.860512032005 -1 0 1
8084 50 9 0.0 554.8141484521186 414.5834354583257 2989.8971702964104 -1 0 1
8086 50 2 0.0 550.5964955491181 409.6293867801133 2987.563817393861 -1 0 1
8055 50 4 0.0 566.0277175428193 404.0835210459283 2989.3350643878925 -1 0 1
8056 50 12 0.0 564.8046437322548 403.50858474694445 2986.133870325782 -1 0 1
11965 74 9 0.0 571.7463317817653 400.06280528795634 2994.3258614185397 0 0 0
8077 50 15 0.0 571.7428101094276 418.16458383174194 2992.3922234805677 -1 0 1
8078 50 9 0.0 568.9902973049284 416.34511072199587 2993.9864211463423 -1 0 1
8074 50 15 0.0 575.747243260864 419.22978710876316 2988.900423875589 -1 0 1
8073 50 15 0.0 573.4810148486383 416.72762742016823 2987.344021851876 -1 0 1
8048 50 48 0.0 585.9658258295265 402.74574413861785 2994.4979385643924 -1 0 1
8049 50 12 0.0 582.68685147253 405.0185473684827 2994.6997015068832 -1 0 1
8050 50 17 0.0 580.1554052778906 403.31554919135027 2997.0255020913355 -1 0 1
8051 50 4 0.0 576.3234290210435 404.0755525588579 2996.4436151032423 -1 0 1
8052 50 2 0.0 575.9013701598033 405.0661856296397 2993.043590887501 -1 0 1
8053 50 9 0.0 573.7247395496952 404.4864000443405 2989.58870319717 -1 0 1
8072 50 12 0.0 575.9515159527944 413.68888013366495 2986.103672643826 -1 0 1
8054 50 2 0.0 569.7198871942353 405.26420134045657 2989.966021948211 -1 0 1
9341 58 9 0.0 585.3724798411952 413.32255572634773 2988.0371098483065 -1 0 1
9340 58 2 0.0 581.9177172617856 413.99790249460267 2987.536642183227 -1 0 1
9338 58 4 0.0 583.0900732758096 416.6370462792719 2992.792563057337 -1 0 1
9342 58 2 0.0 585.1383910902478 409.56082868049356 2988.559376921027 -1 0 1
8070 50 15 0.0 575.2401531638982 407.88537771667677 2982.0390023512286 -1 0 1
9339 58 15 0.0 580.2784177399924 414.02361996105213 2990.962641881712 -1 0 1
9343 58 12 0.0 584.5294770813473 405.3271770809397 2987.8370917947705 -1 0 1
8071 50 15 0.0 574.3579180847437 410.9699021082626 2985.180257393941 -1 0 1
8069 50 2 0.0 570.8981209196616 407.46177447494006 2981.2264710433114 -1 0 1
8068 50 9 0.0 570.7371890054169 404.3687205715766 2979.069605599322 -1 0 1
11966 74 2 0.0 568.3489954036086 400.4079346652724 2995.8954180442006 0 0 0
4018 25 18 0.0 582.9228195445894 417.01030775557956 2981.2644750584113 -1 0 0
4017 25 6 0.0 582.1443939235598 413.96963680041716 2978.881569077798 -1 0 0
4016 25 18 0.0 581.9006112204943 410.5541878439736 2977.249141590404 -1 0 0
4019 25 15 0.0 583.1771217442513 419.28009318135605 2984.2017352321923 -1 0 0
3001 19 2 0.0 607.0733391478257 402.131869665727 2984.5361906616577 -1 0 1
11878 73 15 0.0 602.1558010413567 401.4034546869654 2982.1520140083394 -1 0 1
11877 73 12 0.0 598.7683990668647 400.31159320978094 2979.7803117253516 -1 0 1
2998 19 4 0.0 606.7336651083119 404.08044266722794 2993.410624580186 -1 0 1
13990 86 15 0.0 606.4772838143956 412.774878017485 2985.348477345215 -1 -1 0
8047 50 48 0.0 586.9466254543172 399.5721140066312 2994.6398152789466 -1 0 1
9344 58 15 0.0 587.7310908403608 403.39613305158366 2989.423561071978 -1 0 1
11950 74 2 0.0 599.7373364895725 402.18960552258176 2986.553573688699 0 0 0
2997 19 17 0.0 603.0117624911156 403.073895294119 2993.3054052593557 -1 0 1
10127 63 18 0.0 601.6299434750574 410.9492433338047 2984.42943150499 -1 0 1
10126 63 12 0.0 599.749707068398 411.7563092974026 2981.248152250987 -1 0 1
10128 63 2 0.0 601.1741052103177 414.46040125024285 2986.676618066183 -1 0 1
10129 63 12 0.0 598.028344205838 412.9728389474041 2988.5604270400677 -1 0 1
10125 63 4 0.0 597.0911814645369 411.18264800077554 2979.3642773352735 -1 0 1
10123 63 9 0.0 594.512392834082 405.9938372754994 2981.115990888424 -1 0 1
10124 63 18 0.0 598.1610783624046 406.55232747700103 2979.401717170283 -1 0 1
10130 63 2 0.0 595.5142230435661 411.49905924400423 2985.4692391172916 -1 0 1
9345 58 48 0.0 590.8573053104355 400.7228523211497 2989.618708446891 -1 0 1
10131 63 9 0.0 591.159779102147 411.55576346401205 2984.7268828773585 -1 0 1
11949 74 9 0.0 598.6744174106291 405.8094667419144 2987.180970057477 0 0 0
11948 74 2 0.0 602.5633622787068 406.2434531446803 2988.5896229193004 0 0 0
11946 74 4 0.0 602.5234153770555 412.6459359027348 2991.757980529756 0 0 0
11947 74 15 0.0 601.400814352156 409.1910849619198 2991.185895663847 0 0 0
11945 74 7 -1.0 601.2580932094907 415.24872891285617 2993.823497262145 0 0 0
11944 74 4 0.0 598.968756607092 413.82916549309437 2996.855841299553 0 0 0
10132 63 15 0.0 592.1256541827706 414.9976275519443 2984.6735105966363 -1 0 1
8694 54 48 0.0 593.1511203740015 399.908834566622 2996.9396916690494 -1 0 1
8693 54 48 0.0 592.1531911873194 403.2264201343436 2995.8112523264754 -1 0 1
2996 19 12 0.0 599.5694269833682 402.57069010324636 2994.42713068875 -1 0 1
10122 63 6 0.0 593.2998104025141 404.3619157458435 2977.918211151108 -1 0 1
10136 63 15 0.0 596.7786446766338 419.2192586650429 2977.1619035824 -1 0 1
8687 54 15 0.0 606.1862501243281 413.51165310554325 2995.3297307038597 -1 0 1
8688 54 2 0.0 606.1386007936401 409.92690378261267 2996.993298742166 -1 0 1
10133 63 12 0.0 590.094981091949 417.16246637489695 2981.310877491034 -1 0 1
10134 63 12 0.0 591.8864723613083 415.33256769488264 2977.700783223939 -1 0 1
13985 86 9 0.0 430.04316136493486 421.6743023466789 2978.7562661799125 0 -1 0
13983 86 2 0.0 436.0472901905959 422.6398937089562 2977.386604405355 0 -1 0
13984 86 15 0.0 433.04271074137995 421.9008580878471 2980.5001840749424 0 -1 0
9321 58 15 0.0 428.5409390158078 428.394103471303 2983.369226224807 0 0 1
9322 58 12 0.0 426.97538962641 429.59195252597027 2986.729751776799 0 0 1
9323 58 18 0.0 427.0735987571612 431.53904591465835 2989.9301889651497 0 0 1
9320 58 15 0.0 427.7385570583086 430.393555006216 2980.6698037154088 0 0 1
9324 58 9 0.0 423.3650568349443 433.3014520847734 2991.2096490000285 0 0 1
9312 58 18 0.0 432.2299945949263 434.3492699661246 2977.8847203222062 0 0 1
9311 58 12 0.0 431.8726657205489 433.53956685289234 2982.2467156432162 0 0 1
9310 58 4 0.0 432.7538143999161 432.0531372433943 2986.4690615656846 0 0 1
5384 34 7 -1.0 437.380758902939 431.8234338038271 2995.099092424169 1 -1 0
9309 58 18 0.0 433.53643908231203 435.0610752666388 2989.038870650049 0 0 1
14003 86 15 0.0 426.6264896155979 437.80818750163263 2977.246996099674 0 -1 0
14001 86 12 0.0 425.04325987409294 438.11130547285285 2982.8392149683086 0 -1 0
14002 86 12 0.0 426.63238586915094 439.7890108300271 2980.9563548166802 0 -1 0
5406 34 12 0.0 423.4718644131378 438.87134248975576 2995.8053785109 1 -1 0
5383 34 17 0.0 440.4716274651153 430.15787461959843 2993.4422301867094 1 -1 0
9308 58 9 0.0 432.57218306374807 438.69925267779854 2988.157932628218 0 0 1
5385 34 9 0.0 435.9489647889869 434.32710317366 2996.8859405108747 1 -1 0
5382 34 15 0.0 440.608896922464 427.43416819611684 2996.278188927769 1 -1 0
12112 75 9 0.0 438.05775490221833 420.0941729550203 2996.993862692173 1 0 0
13980 86 18 0.0 445.23420349796913 423.0468647642604 2979.221542849785 0 -1 0
13978 86 2 0.0 449.58627718753246 421.16110715560546 2982.6949470165173 0 -1 0
13977 86 9 0.0 453.76730006134375 420.11496479084065 2983.6305077263582 0 -1 0
15431 95 4 0.0 453.93463580269554 431.39426522749227 2986.3593345049317 0 0 1
15430 95 15 0.0 454.2032553954227 428.5173651221634 2989.0434822059165 0 0 1
15429 95 15 0.0 454.53409983460824 429.78644939057943 2992.8688392775352 0 0 1
15427 95 6 0.0 457.1286579120996 436.53209771271617 2991.436224467673 0 0 1
15428 95 18 0.0 456.8630471461396 433.1299341086944 2993.333029263363 0 0 1
13976 86 15 0.0 455.03653596373937 423.45549420816474 2985.061267552587 0 -1 0
13975 86 15 0.0 458.0517597002363 425.20923114156295 2983.6319181387103 0 -1 0
13974 86 15 0.0 459.20566300799317 426.2304774263493 2979.591475053088 0 -1 0
13973 86 12 0.0 456.7130291560069 429.7491317835206 2979.8847022121604 0 -1 0
13972 86 15 0.0 455.3432898022095 432.7832091003639 2977.740467011586 0 -1 0
15432 95 15 0.0 452.57803333466586 433.39679783514606 2982.8693096941392 0 0 1
15433 95 2 0.0 452.3901418093735 436.1645949899129 2985.331279283652 0 0 1
15434 95 15 0.0 450.80502071232934 438.53586999233954 2988.84205394004 0 0 1
15426 95 18 0.0 460.87580613925434 436.0632089074483 2991.9225130431487 0 0 1
15425 95 12 0.0 462.90263535665326 439.33975468311536 2993.444646158914 0 0 1
13358 82 9 0.0 463.1545063322238 431.16756257423816 2979.140060622195 0 0 0
12613 78 12 0.0 464.2951837826486 424.63363676126795 2995.97867288692 1 0 0
13356 82 12 0.0 469.88902444771793 430.7700275701822 2981.4992175191196 0 0 0
13357 82 2 0.0 465.98247038501574 432.42493219586845 2981.4742374056877 0 0 0
12618 78 2 0.0 475.82722796773817 428.26645472119236 2996.7002556305083 1 0 0
13349 82 12 0.0 480.8907712626711 426.66573687712406 2983.898211388145 0 0 0
13350 82 12 0.0 478.6978969348941 425.9492688454634 2987.2570227642336 0 0 0
13351 82 15 0.0 475.03311332217794 426.1430987298286 2987.7446696621523 0 0 0
13355 82 18 0.0 472.39735084590546 434.06164218149655 2981.5366207274333 0 0 0
13353 82 17 0.0 473.3451830795442 432.1558368831159 2987.0310351348817 0 0 0
13354 82 18 0.0 471.5334494435271 435.1084258449461 2984.9381302742895 0 0 0
15421 95 2 0.0 474.08839444053945 437.21945273989235 2989.5626742985046 0 0 1
15420 95 18 0.0 476.5880309040364 437.6996302790894 2986.9143327691395 0 0 1
15422 95 9 0.0 471.6260311281451 436.9071211600414 2992.462135977062 0 0 1
13352 82 9 0.0 474.76307840640374 429.58408768975306 2989.2382006181238 0 0 0
13348 82 12 0.0 483.5488337445242 428.8566276505011 2982.655157956306 0 0 0
4384 27 12 0.0 483.0632583150887 437.53605291817536 2980.0961668890704 0 1 -1
4383 27 12 0.0 481.506420187715 438.8342224061001 2983.484379749817 0 1 -1
4382 27 2 0.0 482.50670780692803 436.30791942594084 2985.660477115847 0 1 -1
12612 78 48 0.0 465.6446006786097 421.20423747940026 2997.355542778544 1 0 0
15424 95 12 0.0 465.7182739949987 439.05952450513314 2995.629525001339 0 0 1
15423 95 2 0.0 469.0991496495485 436.53188063241686 2995.7960177815903 0 0 1
4311 27 12 0.0 475.77469000543056 438.7594389058792 2996.4333868956037 0 1 -1
5541 34 17 0.0 464.3030837385838 420.9505487375201 2984.066337394548 1 -1 0
5542 34 15 0.0 465.76687697957715 420.38828898967864 2987.3258180808593 1 -1 0
8149 50 17 0.0 503.11488335732554 420.52748140633616 2982.999858537464 -1 0 1
13347 82 2 0.0 486.788432067914 427.4061458880612 2980.7056496614427 0 0 0
13346 82 9 0.0 490.6344831217631 428.2956035342312 2981.0633335254656 0 0 0
13345 82 15 0.0 492.4966761237252 425.96868690764506 2978.5484675297034 0 0 0
4377 27 12 0.0 493.1836579013481 439.2168727407111 2993.1010340800512 0 1 -1
4378 27 12 0.0 491.5136069748783 436.44487683391196 2991.546445200244 0 1 -1
4381 27 9 0.0 485.05289094324763 433.9063148981345 2987.858199394228 0 1 -1