LAMMPS data file via write_data, version 21 Jul 2020, timestep = 10000

16300 atoms
54 atom types
16200 bonds
2 bond types
2600 angles
2 angle types

424.0 589.3 xlo xhi
380.0 545.3 ylo yhi
2980.0 3145.3 zlo zhi

Masses

1 131.2
2 57.05
3 128.2
4 101.1
5 156.2
6 71.08
7 115.1
8 129.1
9 163.2
10 99.06999999999999
11 113.2
12 128.1
13 186.2
14 147.2
15 87.08
16 137.1
17 114.1
18 97.12
19 103.1
20 113.2
21 131.2
22 57.05
23 128.2
24 101.1
25 156.2
26 71.08
27 115.1
28 129.1
29 163.2
30 99.06999999999999
31 113.2
32 128.1
33 186.2
34 147.2
35 87.08
36 137.1
37 114.1
38 97.12
39 103.1
40 113.2
41 329.2
42 305.2
43 345.2
44 306.2
45 87.08
46 107.44
47 87.08
48 107.48
49 57.05
50 86.92
51 86.92
52 86.92
53 107.44
54 107.48

Bond Coeffs # harmonic

1 2.39 3.81
2 2.39 5

Angle Coeffs # harmonic

1 0.0001 180
2 5 180

Atoms # full

6254 39 12 0.0 427.4416861977616 395.6211436563779 2988.2601542932634 0 0 1
6255 39 15 0.0 426.0800326778226 392.44045583995717 2986.3747080784237 0 0 1
6253 39 2 0.0 429.35818852106297 396.01553853059625 2984.957194895444 0 0 1
6252 39 9 0.0 432.7201665808243 395.0184755715215 2982.260558264819 0 0 1
9618 60 1 0.0 436.8473408468393 380.31511844373455 2996.618853642094 0 0 0
9620 60 15 0.0 444.3636316621295 380.51556100379787 2994.78220585885 0 0 0
9619 60 6 0.0 440.4912446135795 380.1411180973887 2995.9042954309466 0 0 0
3646 23 12 0.0 443.2886988068358 388.9029550647598 2997.654712462349 0 0 0
5534 34 9 0.0 426.33227768755313 381.2103148610126 2999.510650411197 0 0 0
13682 84 12 0.0 431.8602268869967 381.5868834750754 2989.8563104663185 1 0 0
13681 84 18 0.0 435.05428740168173 380.17095833544454 2989.697313748657 1 0 0
3644 23 9 0.0 440.47620395117775 383.6553202908357 3000.171537379449 0 0 0
1636 11 9 0.0 438.6782889771166 395.9721178511838 2980.1546381679027 0 0 0
12689 78 2 0.0 428.4209575595351 386.1224191403422 2980.4183922016537 1 1 0
12690 78 12 0.0 429.56545813719083 382.62511276331475 2980.126124700164 1 1 0
9634 60 9 0.0 444.83845779772867 380.1137303547606 2984.011792850006 0 0 0
9621 60 17 0.0 448.2717803429332 381.43261945870006 2994.6747195453563 0 0 0
15825 98 9 0.0 460.1753143396829 398.91782983754877 2995.191550194004 0 -1 0
15817 98 9 0.0 451.3407152258589 396.5388708992205 2982.6512911579216 0 -1 0
15816 98 7 -1.0 448.6829750835115 393.5196469286533 2982.5645951506435 0 -1 0
15823 98 12 0.0 456.11301088176646 393.81462615270004 2997.8228020311003 0 -1 0
15824 98 15 0.0 459.5988853767816 395.48777167528823 2997.2839851498543 0 -1 0
15818 98 4 0.0 452.8931993092961 397.9837585463707 2985.871389057103 0 -1 0
15821 98 6 0.0 449.51743214891104 396.09367147585124 2995.2912844725306 0 -1 0
15820 98 12 0.0 450.683187672615 395.25263853891585 2992.2274486630467 0 -1 0
15819 98 12 0.0 452.7265444032355 395.5118894717322 2988.6261937399895 0 -1 0
15815 98 17 0.0 449.9991357537798 390.3000892296324 2985.003037451628 0 -1 0
15814 98 15 0.0 448.47536776797193 386.61665552493145 2985.03042389922 0 -1 0
15812 98 1 0.0 448.3372256017737 388.9793735400564 2991.7694794838303 0 -1 0
15826 98 2 0.0 461.7323496252509 397.94720226997737 2992.477481315001 0 -1 0
15827 98 6 0.0 459.8994980721264 397.99130919671114 2989.2803462080474 0 -1 0
3647 23 15 0.0 446.9640454856799 389.5026287170887 2999.045109045069 0 0 0
677 5 9 0.0 461.61855854240525 395.5881969556778 2982.7681095066773 -1 0 0
678 5 15 0.0 463.90249483929193 398.9883311302333 2983.526832920602 -1 0 0
9627 60 6 0.0 462.7840511120921 380.74452028666747 2986.2632460314253 0 0 0
9628 60 4 0.0 460.9018311244743 382.16671580419734 2983.2635572311733 0 0 0
15822 98 4 0.0 453.039760962073 396.30132365671534 2997.790006905214 0 -1 0
15813 98 6 0.0 447.3613129482207 386.4222552000013 2988.5955972724923 0 -1 0
9635 60 18 0.0 447.16192126113475 381.98189314104576 2981.6196636625587 0 0 0
5362 33 12 0.0 480.1146637104778 397.553980136566 2986.053494798889 -1 0 0
4083 26 12 0.0 473.175075151069 383.54783294721193 2992.6116814520083 0 0 0
5363 33 12 0.0 480.0410747194145 395.71361600610487 2982.503301779999 -1 0 0
4082 26 4 0.0 473.0849381267762 384.41557985300705 2996.9574954150266 0 0 0
5361 33 12 0.0 476.8150467768888 398.60069418293887 2987.2295914975193 -1 0 0
1132 7 2 0.0 481.5944098552495 387.8469022768732 2994.5044608423627 -1 -1 0
4081 26 9 0.0 473.3439360394925 388.9646166426818 2997.073906199124 0 0 0
1133 7 9 0.0 478.79224652752106 386.3883005770724 2992.5284755931316 -1 -1 0
1135 7 12 0.0 483.8823131127388 391.03488850538764 2988.8510875491515 -1 -1 0
1131 7 12 0.0 484.2081692781606 389.11542096030047 2997.739769002614 -1 -1 0
1134 7 2 0.0 481.6384577857579 387.8364523306312 2990.0070378607816 -1 -1 0
4080 26 7 -1.0 477.1234480927864 388.78954994384816 2998.3754270301565 0 0 0
4079 26 17 0.0 479.1935288502121 385.31877171483706 2998.982564256789 0 0 0
679 5 12 0.0 467.71878299408587 400.4657999618047 2984.736724695588 -1 0 0
4084 26 12 0.0 471.3092336991739 386.1570780281933 2991.3110053677296 0 0 0
4086 26 4 0.0 469.6452869794388 388.3121581039351 2984.9899456105827 0 0 0
4087 26 12 0.0 470.2361664161544 385.5837883803755 2982.5366562453373 0 0 0
1130 7 18 0.0 485.91257863013226 385.56148148804766 2997.123668556636 -1 -1 0
1137 7 17 0.0 485.7133424195337 394.21967440046336 2993.2554370469843 -1 -1 0
4085 26 6 0.0 469.46123260493766 388.3241170526216 2988.6571498501953 0 0 0
8819 55 9 0.0 472.0989593039082 398.2775354310545 2999.544226828829 0 0 0
3960 25 15 0.0 480.3966165803779 399.93474650326993 2997.6796687425226 -1 0 0
4092 26 9 0.0 482.3343320526098 386.2782713695214 2982.670125551119 0 0 0
4090 26 2 0.0 480.20672438599973 382.4194779897211 2980.233455286083 0 0 0
4091 26 6 0.0 482.47392428132673 382.32202355443354 2983.596523919831 0 0 0
4093 26 18 0.0 479.4066472996438 387.9586737045878 2983.8727323987637 0 0 0
4088 26 15 0.0 472.9210013639449 384.0426142339954 2980.2223719001636 0 0 0
1136 7 12 0.0 486.8829330024612 391.3324920990159 2992.0772363523206 -1 -1 0
1139 7 9 0.0 490.9326795587836 399.9287326345454 2992.8145339858406 -1 -1 0
1140 7 17 0.0 492.5177268821466 399.1114224234166 2996.16520511802 -1 -1 0
8315 52 6 0.0 499.5290510264334 389.69637598526435 2987.271783719186 0 0 1
8314 52 1 0.0 498.4198628063921 386.5836068873418 2986.4773128884713 0 0 1
5668 35 12 0.0 498.9338893876395 400.199936709536 2988.8192856299133 -1 -1 0
8735 54 15 0.0 499.6898426955052 387.6173484987707 2995.1784505992164 -1 0 1
8738 54 2 0.0 502.07519915211293 382.8850599295873 2993.7631495897012 -1 0 1
8736 54 9 0.0 497.3870818523577 384.2528000458013 2996.720801709905 -1 0 1
5666 35 12 0.0 500.66628075175186 399.12155292366845 2995.579482759289 -1 -1 0
5663 35 15 0.0 506.12676315941746 397.2144988650553 2989.9024331827122 -1 -1 0
5665 35 2 0.0 501.4333292277081 396.014071501163 2994.48068779194 -1 -1 0
8737 54 18 0.0 498.6591052113494 381.61611954397114 2993.8075948366313 -1 0 1
8739 54 9 0.0 504.1774076086986 383.30649310453776 2990.3463814221677 -1 0 1
5671 35 15 0.0 501.1151635807004 398.81902431401153 2982.9530680955245 -1 -1 0
8320 52 4 0.0 489.13801461569403 393.4638596633962 2983.6201863997294 0 0 1
8734 54 15 0.0 502.36725428288696 390.2179054587342 2996.5166151275835 -1 0 1
5669 35 15 0.0 496.4983499180636 399.07234144080064 2986.297042504521 -1 -1 0
8319 52 9 0.0 489.25050498177865 395.3835607179637 2987.0577315435166 0 0 1
8316 52 15 0.0 498.92357075330216 392.79238699235793 2987.432572219905 0 0 1
8317 52 17 0.0 494.69924495099445 392.18275775255535 2986.8892975299937 0 0 1
5670 35 2 0.0 498.1812105028385 397.397601439642 2983.399090131276 -1 -1 0
5673 35 15 0.0 506.3034298761097 394.1149596544088 2984.2167965992276 -1 -1 0
1138 7 12 0.0 487.6870407577156 397.84542948818523 2993.5941025165316 -1 -1 0
1129 7 18 0.0 486.9636547080623 382.39847001508787 2997.766287134356 -1 -1 0
8321 52 12 0.0 488.4174582092867 389.6123179669137 2982.8286382382194 0 0 1
1141 7 15 0.0 493.05003107579535 395.71175902171086 2997.841578410409 -1 -1 0
5674 35 12 0.0 503.9150323590135 391.7204471432266 2981.9253279248214 -1 -1 0
5675 35 12 0.0 501.28099970742556 389.6088726904454 2980.984894792011 -1 -1 0
8325 52 12 0.0 493.96358077714046 380.34708698644215 2980.671135065884 0 0 1
8326 52 15 0.0 497.7515319955134 380.7223361859735 2980.8904072448263 0 0 1
5664 35 9 0.0 503.3326180984025 395.08199120105144 2990.7263830031843 -1 -1 0
8324 52 4 0.0 493.1556859194539 383.165520214071 2983.0094522594413 0 0 1
8323 52 6 0.0 491.80482341656256 383.63674802024946 2986.2326046191392 0 0 1
8322 52 12 0.0 489.23124128149885 387.0555924964358 2985.3695173042934 0 0 1
8733 54 12 0.0 500.77325438454835 392.2657013149541 3000.081530793072 -1 0 1
348 3 2 0.0 506.197313557573 397.92143102008737 2999.7095332476897 0 -1 0
5672 35 9 0.0 504.8539311620042 397.62317654473617 2983.3368345570543 -1 -1 0
8318 52 7 -1.0 492.39353196341466 393.99135878602357 2988.384228428321 0 0 1
5676 35 18 0.0 499.2114833486166 386.57145030997964 2980.2539082251906 -1 -1 0
775 5 2 0.0 522.2648628371912 384.2163001946925 2980.9104354996766 -1 0 0
776 5 12 0.0 521.9103695927015 381.21383677221917 2981.1341517982905 -1 0 0
758 5 18 0.0 513.6192401728644 381.20083577258237 2980.2803191239636 -1 0 0
14364 89 12 0.0 537.3354728762484 385.55631855042003 2994.6368058801195 0 1 0
14365 89 18 0.0 534.6031289337191 387.55027087338215 2997.4106100259464 0 1 0
14362 89 18 0.0 543.5195404948045 387.53092862398574 2991.2723283462815 0 1 0
14363 89 4 0.0 540.1886524180841 386.17929544243 2992.847484322674 0 1 0
814 5 17 0.0 542.663875723942 396.81787512280846 2989.6644509447833 -1 0 0
815 5 15 0.0 541.331725909382 393.40939545524697 2991.5889701700657 -1 0 0
813 5 9 0.0 545.6406094600848 397.6333378786714 2991.2521553652055 -1 0 0
14361 89 9 0.0 546.8053896456406 389.9666995255286 2990.4502696931327 0 1 0
14366 89 2 0.0 531.6907557630298 388.68172722011514 2999.795217587341 0 1 0
11708 72 15 0.0 545.5632524078861 384.41874573523774 2983.2913724707437 0 1 0
11709 72 9 0.0 543.074564462218 382.5871158640763 2980.595816700386 0 1 0
787 5 15 0.0 533.4740569426035 380.51733984345594 2991.6808949525253 -1 0 0
14359 89 2 0.0 547.4847267956029 384.1188677485864 2988.6323469945387 0 1 0
14358 89 9 0.0 543.8938051211492 381.6242039179015 2987.9902557859386 0 1 0
789 5 2 0.0 532.43157223857 380.81015762410226 2996.560253180242 -1 0 0
788 5 9 0.0 530.7938925546399 382.31295186833466 2993.1459599265286 -1 0 0
797 5 12 0.0 544.7799265161445 383.076945047927 2998.37770874657 -1 0 0
798 5 12 0.0 546.6948641637556 380.8414252740395 2995.184578016477 -1 0 0
13375 83 12 0.0 544.2148522434308 398.5006051809315 2999.297809629365 -1 -1 0
13374 83 12 0.0 541.6761914646761 400.63950265038744 3000.1547858021427 -1 -1 0
6520 40 15 0.0 532.6349645961135 390.22926542523464 2983.023005712835 0 0 1
6519 40 17 0.0 528.5577997161162 389.41961475690533 2982.0346042050824 0 0 1
812 5 12 0.0 549.1121077598901 396.2954346364167 2991.928373712278 -1 0 0
10577 65 12 0.0 550.4302215938445 397.7091727516238 2981.335745334373 0 0 0
811 5 17 0.0 549.2913975460489 394.5329738283529 2995.8540799601365 -1 0 0
810 5 12 0.0 551.494660577322 391.1045055041109 2996.0259420336356 -1 0 0
10576 65 2 0.0 553.8535397422243 396.32485437054163 2980.799369368194 0 0 0
15013 93 9 0.0 565.9451979414821 388.0116636265053 2986.142944273931 0 0 0
15012 93 6 0.0 567.5953378823291 389.15421029467325 2983.6285465617325 0 0 0
6271 39 15 0.0 557.0406424221645 393.6348084710615 2988.954412808568 -1 0 1
6272 39 4 0.0 555.557565023623 392.27921244370515 2992.2498791000935 -1 0 1
6273 39 2 0.0 558.3257544920787 394.3070805339325 2993.782549549361 -1 0 1
15014 93 18 0.0 562.3170168380295 388.5056490570034 2985.3007185931374 0 0 0
6274 39 49 0.0 558.4237369890158 397.3465418249426 2996.031251225834 -1 0 1
15018 93 2 0.0 560.954470017641 398.1795168479402 2987.786538005214 0 0 0
5865 36 12 0.0 562.7307529620937 392.9383328545159 2998.344996504079 -1 0 0
6268 39 2 0.0 567.7795128754677 392.75528642291977 2991.864807457689 -1 0 1
6270 39 2 0.0 560.9752434477851 392.67172188399564 2989.4059709841604 -1 0 1
6269 39 9 0.0 564.069614494562 391.10048254740025 2990.8659341533757 -1 0 1
15015 93 4 0.0 559.2398099269851 388.6425182988279 2984.0658616519195 0 0 0
15016 93 12 0.0 558.419676530133 392.73740773675 2983.3581523113426 0 0 0
15017 93 18 0.0 560.3088340760825 395.71962797168567 2984.3684088285045 0 0 0
809 5 12 0.0 548.8240120200204 389.515655279546 2998.8950120307995 -1 0 0
5866 36 9 0.0 563.6341251964644 389.5104190510509 2998.036208435561 -1 0 0
5867 36 17 0.0 567.4160866911132 388.14748677463615 2998.8157032664794 -1 0 0
6275 39 9 0.0 560.9781525869546 399.07107627227276 2996.3604693658076 -1 0 1
10582 65 17 0.0 555.5439046805295 400.3128049182365 2990.508374970477 0 0 0
15019 93 12 0.0 564.6626426664226 396.5730649654209 2988.4302811161883 0 0 0
14360 89 6 0.0 548.9933961268839 387.36613196040327 2988.876281530235 0 1 0
800 5 15 0.0 552.1347246399266 380.2718888071884 2992.028100675714 -1 0 0
801 5 9 0.0 555.8075562342055 380.6222049606529 2994.432330675896 -1 0 0
802 5 17 0.0 557.6928228673613 384.095415239665 2995.3275710986304 -1 0 0
11707 72 18 0.0 548.5906109371244 382.26492685182984 2983.923558427039 0 1 0
804 5 18 0.0 556.5160411888082 389.7423106954006 2999.0148423266146 -1 0 0
803 5 18 0.0 556.9623982626969 386.8351992109614 2996.594358436547 -1 0 0
15020 93 2 0.0 564.3942521544803 398.7214514831206 2984.870710734955 0 0 0
6256 39 12 0.0 586.9870641761116 393.25839874152337 2986.9929020027644 -1 0 1
5533 34 2 0.0 588.9015190750787 380.3891399421275 2996.853314899718 -1 0 0
6247 39 15 0.0 586.7493973986903 398.7508193500062 2981.395649171508 -1 0 1
6259 39 2 0.0 582.7038036420586 393.51758111841133 2994.9917837793178 -1 0 1
6260 39 9 0.0 580.3526669697734 394.8144656755938 2997.816235540245 -1 0 1
15011 93 2 0.0 569.5534651146378 386.43861589049584 2981.5727968819383 0 0 0
5949 37 9 0.0 571.5742069537754 384.6149949327249 2990.037294133049 -1 0 0
5950 37 2 0.0 574.9908892862983 384.6553509727527 2990.0595663966765 -1 0 0
5952 37 15 0.0 578.528387097191 383.22399924234645 2995.885566758516 -1 0 0
5953 37 12 0.0 581.329690841717 385.02456596259407 2997.1456914234673 -1 0 0
15007 93 4 0.0 574.8926638170623 385.7657246148457 2983.7897706363215 0 0 0
15006 93 6 0.0 578.2366464711562 384.72317031291476 2985.575387107947 0 0 0
5948 37 49 0.0 572.17733700647 388.5734993827212 2989.4469753163116 -1 0 0
5947 37 2 0.0 571.56859405499 392.26055102207374 2987.810389962429 -1 0 0
5946 37 4 0.0 570.7472813126328 394.08493829162535 2984.225272430006 -1 0 0
5945 37 15 0.0 573.471837978289 395.7614219904618 2982.300133018263 -1 0 0
6267 39 12 0.0 571.7474327125235 392.2160886974549 2993.52818585342 -1 0 1
6244 39 9 0.0 583.1561912758225 399.80636958271066 2987.365060490637 -1 0 1
15005 93 12 0.0 579.7402870968497 388.4838683405126 2986.481799407703 0 0 0
15008 93 12 0.0 573.6086869661458 389.7750309448078 2982.5300860466673 0 0 0
6245 39 2 0.0 580.5269126431401 399.27023819575635 2984.7435309525868 -1 0 1
15004 93 12 0.0 581.8739947300293 390.52108601105056 2984.806416640355 0 0 0
6261 39 2 0.0 576.7093093035713 393.9816875990984 2999.794583071021 -1 0 1
6264 39 15 0.0 570.0800823961813 398.53136005870783 2999.1848965169825 -1 0 1
5951 37 15 0.0 577.417757471576 385.0931072311162 2993.1012717378558 -1 0 0
6246 39 12 0.0 582.838131582084 398.9225164894396 2981.391436497762 -1 0 1
15003 93 4 0.0 583.3772831471903 388.63020372086436 2981.6142247447387 0 0 0
6265 39 4 0.0 569.5184245274256 396.52859937555235 2996.66901297516 -1 0 1
6266 39 18 0.0 573.0245154090206 395.5468715943632 2994.4698052352246 -1 0 1
5868 36 15 0.0 569.474096990913 384.7269939232317 2998.209788266166 -1 0 0
5954 37 15 0.0 582.3901361716688 382.0513045761151 2999.4911348151236 -1 0 0
6257 39 17 0.0 587.6142587615855 393.5411939650631 2990.60901583316 -1 0 1
6258 39 4 0.0 586.3063795737024 394.3014778702945 2994.1285690289706 -1 0 1
5521 34 15 0.0 574.6452513546394 381.8597662204555 2980.064903463923 -1 0 0
1639 11 12 0.0 444.64671961508924 402.5142471945211 2983.2315783788176 0 0 0
1659 11 15 0.0 439.0809280557752 409.36730065540235 2987.976367507218 0 0 0
1661 11 12 0.0 437.5903197880255 405.7725623598909 2982.9439476731163 0 0 0
1660 11 15 0.0 438.8362391568283 409.0909181183091 2984.3788882375034 0 0 0
1658 11 12 0.0 440.3791497743529 406.22167506057434 2990.6906671564343 0 0 0
6240 39 7 -1.0 426.8861058758483 406.3463352507115 2983.456460233859 0 0 1
1656 11 15 0.0 442.5078794955146 405.2593441384794 2997.275219251894 0 0 0
1657 11 12 0.0 443.6375885531465 405.3148184941163 2993.548303767019 0 0 0
11764 73 12 0.0 437.2088140173279 419.5340576703348 2996.875688163103 0 0 0
9295 58 17 0.0 425.933703708236 411.7390038912297 2997.89851098326 0 -1 1
531 4 46 0.0 428.02829917452743 419.95329056856764 2982.1667797139753 0 0 0
1826 12 9 0.0 427.2859874015731 420.24464019624384 2999.538436006508 0 0 0
11763 73 12 0.0 437.0061785735074 416.3332656773464 2998.7017760989747 0 0 0
9296 58 7 -1.0 426.2390282439261 410.5210389860412 2994.199922313614 0 -1 1
9297 58 9 0.0 424.14302023009515 407.66507480880404 2991.738159041328 0 -1 1
669 5 9 0.0 442.6143715926252 409.6590915822471 2980.93618820975 -1 0 0
663 5 4 0.0 444.1048742937573 411.10643788712974 2992.597370179317 -1 0 0
662 5 6 0.0 444.47052037090486 413.1272313024032 2996.112569240547 -1 0 0
6241 39 4 0.0 427.77154359596625 403.7494335461535 2986.3170788848256 0 0 1
6239 39 4 0.0 426.2732295472953 410.0571876147634 2983.3682829266095 0 0 1
1829 12 12 0.0 425.00123876278025 420.632450556685 2988.886681712754 0 0 0
8522 53 7 -1.0 441.15921584123134 420.0844513305586 2982.1864936738816 -1 0 1
1638 11 12 0.0 441.85894512665504 400.74841970145883 2982.214686900926 0 0 0
668 5 6 0.0 441.34920921202337 412.79616092406525 2982.0000161565213 -1 0 0
1640 11 6 0.0 446.9354280729517 405.06802257090476 2983.3851024010473 0 0 0
1641 11 4 0.0 450.30267828201227 407.6642050054305 2984.19842768459 0 0 0
15829 98 18 0.0 459.1158782471507 404.4093432395259 2984.6334896233484 0 -1 0
1642 11 12 0.0 453.83281592954194 407.71648756658664 2986.0267446966827 0 0 0
1643 11 15 0.0 452.64303576568403 403.8787596086288 2987.2864544266267 0 0 0
1644 11 9 0.0 453.33506365551443 404.186206880999 2991.2620172014376 0 0 0
1645 11 2 0.0 451.65658497180607 404.9594244888958 2994.136388982379 0 0 0
1646 11 6 0.0 454.4331779943282 406.2533644547391 2996.4405427188776 0 0 0
1647 11 9 0.0 453.5510074582086 405.27509959160864 2999.9092634352487 0 0 0
665 5 15 0.0 445.98863338184475 412.1929759989366 2986.571834042295 -1 0 0
15828 98 9 0.0 459.47783117266545 401.4822217856926 2987.2464319935607 0 -1 0
666 5 9 0.0 447.95433398596083 414.6186114376952 2984.478261842394 -1 0 0
15830 98 4 0.0 462.3975627450361 405.98136343222217 2982.9228727102345 0 -1 0
664 5 12 0.0 446.27727579608745 408.86185506376995 2989.949745977773 -1 0 0
661 5 12 0.0 446.9579728627664 415.9193947410663 2997.1667984371593 -1 0 0
15831 98 12 0.0 463.421155137857 403.59400804237754 2980.0499414471183 0 -1 0
683 5 12 0.0 462.55571626308654 408.6175537110849 2987.9752067456775 -1 0 0
4126 26 2 0.0 460.3810546315331 419.0184192202831 2981.7288810404575 0 0 0
4125 26 9 0.0 460.5647579664684 416.68294433122736 2986.007173312547 0 0 0
660 5 12 0.0 448.3956938192762 415.6251967236382 2992.892927035909 -1 0 0
657 5 7 -1.0 458.2799058203621 413.405397203962 2990.9922046299057 -1 0 0
4124 26 2 0.0 461.03256451874444 420.83224839745367 2987.5837456657728 0 0 0
658 5 9 0.0 455.2038205278297 413.6622995555896 2990.8267545830245 -1 0 0
659 5 4 0.0 451.2892998455192 413.6018553257228 2991.644514210987 -1 0 0
647 4 12 0.0 465.1813050250606 410.87266556804747 2980.104994382233 0 0 0
682 5 15 0.0 463.78779094916575 406.0869589400535 2990.1871414434313 -1 0 0
656 5 17 0.0 460.675953797957 410.34344546682377 2993.1468191180443 -1 0 0
655 5 15 0.0 458.9861253590282 411.5043307355576 2996.378732414022 -1 0 0
681 5 15 0.0 464.7382222076075 402.33579392728046 2989.6287647835934 -1 0 0
654 5 6 0.0 455.93620610898324 412.90803485611593 2999.0932966896485 -1 0 0
11746 73 6 0.0 448.3391441469078 420.9308576210635 2999.501167382764 0 0 0
2734 17 12 0.0 452.7700486359461 420.87395600956177 2992.1059776181214 0 -1 0
2732 17 12 0.0 456.8516875507016 420.9895259489601 2998.2126204408733 0 -1 0
2731 17 2 0.0 458.6562322637744 418.32283416018583 2996.8087562486166 0 -1 0
14066 87 15 0.0 465.30597755717395 420.6046235397322 2989.458487623158 0 0 0
5355 33 12 0.0 463.09325567013593 405.82785294424747 2998.445244461768 -1 0 0
2730 17 9 0.0 460.9041558006525 420.21433994854885 2994.056254896859 0 -1 0
667 5 2 0.0 445.46237233245654 414.9121255914057 2981.7176582037896 -1 0 0
5359 33 9 0.0 475.4351873097965 405.4459910635803 2990.390250797167 -1 0 0
684 5 18 0.0 465.7610376022982 410.5163780364169 2986.7875056400835 -1 0 0
5360 33 2 0.0 477.7194481759836 401.5222387701958 2989.9727821640668 -1 0 0
15840 98 15 0.0 475.6238383360161 405.0918718633364 2982.95304493678 0 -1 0
5356 33 12 0.0 465.6218299381437 405.50715546340143 2995.586031869241 -1 0 0
5358 33 15 0.0 471.72371372941836 404.5742373951103 2991.575680209941 -1 0 0
15841 98 15 0.0 479.04546978647676 405.8960551546054 2984.4362697746383 0 -1 0
15843 98 18 0.0 484.33160522588696 403.9349208252187 2989.6753374753694 0 -1 0
15842 98 12 0.0 482.9160112295222 404.40820340065636 2986.0266791304584 0 -1 0
685 5 9 0.0 466.66791993142647 414.287423555788 2987.285029415578 -1 0 0
5357 33 12 0.0 469.04090650684503 406.01828047596047 2993.6162796655963 -1 0 0
3958 25 7 -1.0 481.45984432678887 405.6383748644948 2997.766601451438 -1 0 0
3954 25 46 0.0 483.0598187547306 415.64131688063986 2988.0031626848695 -1 0 0
3955 25 12 0.0 480.4646662048094 414.11283141958603 2990.76771523871 -1 0 0
3956 25 15 0.0 480.8403120514932 410.8423524311309 2992.687060626001 -1 0 0
3957 25 4 0.0 482.14867823170215 408.174296122481 2994.2188947337418 -1 0 0
362 3 12 0.0 481.90622940306565 416.5575220410421 2997.4392880717905 0 -1 0
363 3 46 0.0 482.2643680152162 418.69304309525904 2994.0705275495047 0 -1 0
687 5 12 0.0 471.7521167163905 416.837117258916 2985.7248573016345 -1 0 0
3959 25 4 0.0 480.69864358451434 402.9753008800209 2995.5266652039704 -1 0 0
686 5 2 0.0 468.773738966771 414.81788962358587 2984.482993011501 -1 0 0
650 4 9 0.0 473.31551711856156 410.75541252059554 2987.84859606836 0 0 0
651 4 17 0.0 473.06729890894394 412.36251827067946 2990.877267411124 0 0 0
652 4 15 0.0 470.5372237652768 412.5020670569384 2993.4918734494095 0 0 0
2650 17 46 0.0 479.71360969430106 414.73801868032535 2981.3367017843634 0 -1 0
2649 17 46 0.0 483.5174260097584 416.59336131246937 2981.600385625789 0 -1 0
2651 17 12 0.0 476.3969137661467 412.6457056421908 2982.042396988345 0 -1 0
680 5 12 0.0 467.9790774707774 403.3586840913255 2987.290966875447 -1 0 0
3953 25 46 0.0 485.5860140781695 418.7414990300208 2987.581965270351 -1 0 0
15839 98 12 0.0 474.87430640155515 401.99260366899614 2980.9798984540057 0 -1 0
648 4 17 0.0 469.2688806622442 409.8745148920321 2981.8175229233575 0 0 0
649 4 12 0.0 471.4070821089773 409.2121668617126 2984.9051929606835 0 0 0
689 5 46 0.0 477.5011624214796 419.1898942103522 2984.651061134758 -1 0 0
688 5 12 0.0 473.762116541001 419.7135814597202 2984.5734831371415 -1 0 0
690 5 46 0.0 480.70575197601033 421.2548908386183 2984.1297965365593 -1 0 0
14065 87 4 0.0 466.8693262830583 420.33927951044257 2992.9828366217193 0 0 0
14064 87 7 -1.0 469.4979179228399 419.5757056454488 2995.4612047605788 0 0 0
14063 87 4 0.0 471.6774631064857 417.62019535349657 2998.290102976817 0 0 0
14062 87 15 0.0 474.3986959659847 416.8574629689868 2995.1083242863065 0 0 0
14060 87 46 0.0 475.73358237220657 420.62927491368873 2991.0562747420604 0 0 0
14061 87 12 0.0 473.1234273425651 417.83599544469166 2991.3831698346376 0 0 0
8821 55 4 0.0 475.40937679812 404.81135814579625 2998.317997227737 0 0 0
8822 55 12 0.0 475.58865255036375 408.64005930638 2997.335128428815 0 0 0
8820 55 18 0.0 474.05555694674666 400.91624818882786 2997.829124144847 0 0 0
5667 35 18 0.0 499.7093637128434 401.0856842624695 2992.3378286301013 -1 -1 0
5662 35 15 0.0 506.6329738946648 400.9827440142691 2989.406348545606 -1 -1 0
15844 98 9 0.0 486.48025588047847 404.46456804449224 2991.9191148640834 0 -1 0
15846 98 12 0.0 488.25741915502715 411.96361725470183 2989.587479882091 0 -1 0
2648 17 46 0.0 486.8803646209525 417.35993778272933 2982.0747543505427 0 -1 0
15847 98 12 0.0 489.73432305303334 413.2010683340722 2993.2446781146273 0 -1 0
15845 98 2 0.0 489.30710472939046 407.84597244974367 2990.751563250908 0 -1 0
2647 17 53 0.0 490.8288370617164 418.7549130731449 2982.6512343098943 0 -1 0
5752 36 4 0.0 498.10598469229654 401.5359781904048 3000.1538690950288 0 0 0
5751 36 7 -1.0 499.58585841993425 404.4903864475269 2997.5921149196524 0 0 0
15848 98 46 0.0 487.93310387826864 416.8159286536149 2992.8702244041087 0 -1 0
15849 98 46 0.0 487.67869990623745 420.69751246129954 2992.5973704051607 0 -1 0
5749 36 15 0.0 496.10913198043465 408.23268015878705 2992.0553819436077 0 0 0
5750 36 4 0.0 497.48696385155824 408.20875831322826 2996.125327403796 0 0 0
5748 36 12 0.0 494.3624938799946 411.8505242723937 2990.232249585182 0 0 0
5747 36 46 0.0 492.85753676889635 414.909452507064 2988.4476798992782 0 0 0
2646 17 46 0.0 493.65680538621734 419.7012938145346 2984.0110958961873 0 -1 0
5659 35 15 0.0 505.68638657507773 409.25544203820954 2987.6033779299864 -1 -1 0
2645 17 46 0.0 496.80366282988086 420.7182370955155 2984.187154406364 0 -1 0
5660 35 12 0.0 503.7341762041959 405.7263411938891 2988.3715503068643 -1 -1 0
5746 36 46 0.0 492.43142157618877 418.601614222543 2989.111482715488 0 0 0
2643 17 12 0.0 501.6711541041406 419.5959481534509 2989.521074246636 0 -1 0
2642 17 2 0.0 502.6435311245969 416.0126092658654 2988.3912981676926 0 -1 0
2641 17 9 0.0 503.80068414071314 415.5086909639724 2985.1932925142855 0 -1 0
2640 17 18 0.0 502.4576085349964 417.90706543199445 2982.622576470153 0 -1 0
351 3 9 0.0 506.5071336867332 403.60147746150756 2999.481193564427 0 -1 0
5714 36 12 0.0 504.21107563975113 405.0824782136303 2981.928057445016 0 0 0
5661 35 15 0.0 507.66627571297045 404.9845885047811 2990.5325253471447 -1 -1 0
5656 35 2 0.0 510.6669483887454 412.17371752872407 2992.073987057419 -1 -1 0
5657 35 15 0.0 508.92541681031065 414.9488871601089 2989.624859667392 -1 -1 0
5658 35 15 0.0 508.74302514616977 410.9058685727277 2988.0689612758074 -1 -1 0
5718 36 15 0.0 513.0520812986704 408.4977942469745 2981.1394471469594 0 0 0
5719 36 9 0.0 512.0320705995895 411.1327923851789 2983.3009078375626 0 0 0
5720 36 2 0.0 512.8841069976729 414.8536380764037 2983.863442691598 0 0 0
5721 36 6 0.0 513.989878799053 415.8375784600187 2987.0935568374107 0 0 0
5722 36 9 0.0 513.9523439249436 419.7577749444536 2986.349518349603 0 0 0
5723 36 18 0.0 510.32598603342325 420.85419380921036 2987.589355016708 0 0 0
16074 99 9 0.0 515.8658535399887 405.5831712402424 2992.678031629597 0 0 0
16075 99 2 0.0 516.4111648289187 407.8352845494441 2989.273739650187 0 0 0
16077 99 12 0.0 520.1334630533721 410.40341137903573 2983.107277174614 0 0 0
16073 99 2 0.0 514.341908317248 404.8001310990857 2996.7426635464863 0 0 0
16072 99 18 0.0 515.5825757162457 406.96966688588145 2998.8349017014257 0 0 0
9230 57 12 0.0 515.4965707442739 416.38393851675863 2992.7091507044674 -1 0 0
9231 57 12 0.0 516.6781110018889 412.5175217426574 2991.330028322294 -1 0 0
16076 99 12 0.0 518.6686373907716 408.67291572931 2986.6725338569577 0 0 0
9229 57 2 0.0 517.1094334903037 419.2518713359545 2994.5354756679576 -1 0 0
9228 57 9 0.0 519.0100806657294 420.4573977237599 2997.7307310334536 -1 0 0
5709 36 17 0.0 506.8968907660925 414.16810933065403 2980.2592117448057 0 0 0
5655 35 9 0.0 508.93260297553536 413.3349267767439 2995.6049782543346 -1 -1 0
5654 35 15 0.0 507.8448208261958 416.8241746721066 2997.502470029324 -1 -1 0
16071 99 9 0.0 519.8255435333651 406.3848906308077 2999.595140463886 0 0 0
9237 57 4 0.0 526.3260029304417 411.9465236576289 2998.3609608067522 -1 0 0
9232 57 18 0.0 519.9733782163594 413.7690162396898 2989.811563331208 -1 0 0
9233 57 6 0.0 520.789687287428 417.50178561975173 2990.495920773232 -1 0 0
9234 57 18 0.0 522.3962590390719 417.2932208528145 2993.9266555429563 -1 0 0
9235 57 15 0.0 520.7357264267788 414.6761428918483 2995.55134354286 -1 0 0
9236 57 15 0.0 523.4005037958096 413.56617570737177 2998.9342307561883 -1 0 0
5707 36 6 0.0 509.0437690449831 419.59569638348665 2981.4969506766147 0 0 0
5653 35 2 0.0 509.5302325964113 418.81516058252475 2999.6863320964303 -1 -1 0
5717 36 12 0.0 513.6094062421636 405.11609530215986 2983.2310196044536 0 0 0
5716 36 4 0.0 509.65026771574236 404.26875693456867 2983.629633719995 0 0 0
5715 36 6 0.0 508.1082589544054 403.4762971765817 2981.0735176487 0 0 0
13369 83 15 0.0 533.7958265155645 404.1825057631337 2996.402120301356 -1 -1 0
13368 83 6 0.0 532.0876960471185 402.8670242678444 2999.3058424205337 -1 -1 0
13370 83 17 0.0 536.2067115350732 406.38923045944114 2994.5907836429624 -1 -1 0
16130 99 2 0.0 542.5774928531548 414.76737970533105 2981.3181429145443 0 0 0
8298 51 15 0.0 543.0653385472352 416.19875796488594 2996.4963927060276 0 -1 1
8297 51 12 0.0 544.3552079963478 419.8434425209042 2997.817966421203 0 -1 1
8299 51 9 0.0 538.9105583941401 414.81745664621553 2996.313141018059 0 -1 1
8300 51 17 0.0 537.7410512838844 418.34802194033944 2997.411506736696 0 -1 1
8296 51 12 0.0 543.6320251581219 421.1776186437404 2994.1418811881595 0 -1 1
13371 83 7 -1.0 538.937101876018 407.87094808090296 2996.3134707079826 -1 -1 0
13372 83 9 0.0 537.7426315549728 407.19311959213934 3000.2986619828866 -1 -1 0
13373 83 4 0.0 538.362633176351 403.3967335393242 3000.076186996044 -1 -1 0
16129 99 9 0.0 545.2283453179612 418.0909531492546 2980.3253858215503 0 0 0
16131 99 12 0.0 538.8093737966609 416.33590595500164 2981.47063299429 0 0 0
16106 99 12 0.0 528.2274270740255 415.01082881835737 2982.503187116912 0 0 0