LAMMPS data file via write_data, version 21 Jul 2020, timestep = 200000

28500 atoms
48 atom types
28288 bonds
2 bond types
1600 angles
2 angle types

900.0 1150.0 xlo xhi
600.0 850.0 ylo yhi
4200.0 4450.0 zlo zhi

Masses

1 131.2
2 57.05
3 128.2
4 101.1
5 156.2
6 71.08
7 115.1
8 129.1
9 163.2
10 99.06999999999999
11 113.2
12 128.1
13 186.2
14 147.2
15 87.08
16 137.1
17 114.1
18 97.12
19 103.1
20 113.2
21 131.2
22 57.05
23 128.2
24 101.1
25 156.2
26 71.08
27 115.1
28 129.1
29 163.2
30 99.06999999999999
31 113.2
32 128.1
33 186.2
34 147.2
35 87.08
36 137.1
37 114.1
38 97.12
39 103.1
40 113.2
41 329.2
42 305.2
43 345.2
44 306.2
45 114.1
46 99.27
47 99.27
48 99.27

Bond Coeffs # harmonic

1 2.39 3.81
2 2.39 5

Angle Coeffs # harmonic

1 0.0001 180
2 5 180

Atoms # full

25373 492 5 1.0 906.4620618691325 614.4771013568642 4211.708505255292 0 0 0
25374 492 2 0.0 908.6196562088905 611.1474089969824 4211.170296780197 0 0 0
25375 492 2 0.0 907.4060707222371 610.2801249477997 4207.453660492124 0 0 0
25377 492 14 0.0 901.526606681625 611.3544379483063 4203.293264361 0 0 0
25376 492 17 0.0 904.9649529604669 610.9788417686391 4205.851452474025 0 0 0
25371 492 14 0.0 905.8803736234626 619.7282172856414 4206.841013274888 0 0 0
25370 492 17 0.0 908.2271952266964 618.5014747790557 4204.451468992932 0 0 0
25372 492 2 0.0 905.9662297751929 617.4998498825921 4210.597064398859 0 0 0
25369 492 7 -1.0 908.1748328581373 616.4763981678566 4201.348606780966 0 0 0
27344 506 18 0.0 900.1786133463498 616.8444728310507 4200.252990321534 0 0 0
25384 492 2 0.0 901.4034412860244 603.1339030751049 4214.633126703118 0 0 0
27343 506 3 1.0 900.0569473869924 618.7974987758229 4203.563981247161 0 0 0
25381 492 2 0.0 902.0752522756212 607.4892432014709 4207.68333868408 0 0 0
25382 492 2 0.0 903.9467604566166 603.9056134341185 4208.801553765873 0 0 0
25383 492 14 0.0 903.0947770603972 601.9570021790604 4211.967111768841 0 0 0
26903 503 14 0.0 936.4481091327052 610.3920865881208 4211.675765523906 0 0 0
26904 503 2 0.0 939.0916179172361 609.0632240921411 4210.49314135466 0 0 0
26905 503 17 0.0 942.2838004085427 606.8259710846385 4210.241142956705 0 0 0
26902 503 7 -1.0 936.404115610488 608.6281677650999 4215.111461058893 0 0 0
26901 503 17 0.0 938.3893249495953 611.3801397923174 4217.486560466804 0 0 0
26900 503 9 0.0 939.5629020431984 609.5033944304628 4221.062903606717 0 0 0
26906 503 9 0.0 944.2465498107221 606.9471234708476 4207.3719113432835 0 0 0
26907 503 17 0.0 944.4709720094986 603.6358851654487 4205.731587226843 0 0 0
26898 503 2 0.0 943.7186502487453 613.8162042158206 4219.568060903348 0 0 0
26897 503 2 0.0 943.6997878510626 612.4689362816142 4216.061205871495 0 0 0
26899 503 15 0.0 942.8799274144022 609.7490126746268 4219.95487684468 0 0 0
26894 503 14 0.0 951.8068821075861 611.964738428181 4216.48766860102 0 0 0
26895 503 2 0.0 950.1735266055068 615.1374038488441 4215.979076354435 0 0 0
26916 503 1 0.0 947.2726369699919 604.6422984173239 4219.311607426942 0 0 0
26917 503 3 1.0 951.2237809579627 604.0331370541983 4221.053855256011 0 0 0
26915 503 18 0.0 944.9200631831973 605.5206576034049 4216.23515002363 0 0 0
26893 503 17 0.0 954.7618315703467 613.5514751026692 4219.0119250131975 0 0 0
26896 503 2 0.0 946.4161903319529 616.3461138413903 4216.118880498575 0 0 0
26908 503 17 0.0 943.849806305651 600.2718272419035 4203.019506701524 0 0 0
26914 503 2 0.0 943.6118350953097 601.9981061107823 4213.555314429178 0 0 0
26883 503 2 0.0 968.4533748717504 618.9228130310909 4216.533570948795 0 0 0
26884 503 9 0.0 966.6613284711236 617.3024227844992 4218.813095549703 0 0 0
55765 1627 44 -1.0 1006.5096116913547 608.5169322279704 4213.749844791378 0 0 0
55764 1627 44 -1.0 1005.1737618013922 604.4139991255505 4217.284066185032 0 0 0
55763 1627 44 -1.0 1002.0692547427377 600.5812031273764 4219.342504669941 0 0 0
55766 1627 44 -1.0 1009.0459505347835 612.9106052703847 4213.350451540548 0 0 0
55768 1627 44 -1.0 1013.1183773083076 616.2811954248473 4220.308034630163 0 0 0
55767 1627 44 -1.0 1013.8224532392176 614.4144746273387 4215.3118939050255 0 0 0
27357 506 15 0.0 903.6438255987987 625.1918508987897 4219.243991927018 0 0 0
27356 506 15 0.0 904.9373400418107 626.4630198456183 4215.840127311914 0 0 0
27335 506 2 0.0 903.4756447819726 628.982946422473 4201.895904106164 0 0 0
27355 506 15 0.0 906.6753773052159 628.3404560325271 4213.296652368961 0 0 0
27353 506 15 0.0 901.1479633754915 630.1515473038853 4211.248643407797 0 0 0
27354 506 15 0.0 904.7511214007701 631.7661296473235 4212.282922238784 0 0 0
27336 506 2 0.0 901.8565169549398 632.1053406936838 4200.838173854727 0 0 0
22357 469 2 0.0 937.1498625141644 639.301020797639 4210.206970373995 0 0 0
22358 469 15 0.0 933.6154915186285 639.7338622008609 4208.085057867268 0 0 0
22362 469 15 0.0 926.4598747355911 635.5245177617384 4211.875255563896 0 0 0
22359 469 15 0.0 930.0181077926792 640.4881681322603 4209.742143145712 0 0 0
22360 469 15 0.0 931.1404202136507 637.2694465672173 4212.213207608578 0 0 0
22361 469 15 0.0 929.8086962880124 635.4407447821201 4209.673022677146 0 0 0
22363 469 15 0.0 927.621602153008 633.7114168806747 4214.422414760308 0 0 0
22364 469 9 0.0 929.929081316784 635.6251397693086 4217.474075780192 0 0 0
22365 469 2 0.0 929.3488789370367 638.9186102071803 4217.994453993049 0 0 0
26880 503 15 -1.0 964.0571447023071 623.3637619060856 4217.889028361684 0 0 0
26879 503 2 0.0 961.1129766088618 625.0438044718425 4217.920546866942 0 0 0
26875 503 2 0.0 956.7807108827583 634.757359230788 4220.289628906083 0 0 0
26878 503 2 0.0 958.5081898820141 626.6494807777203 4217.182984580318 0 0 0
26877 503 9 0.0 955.6754945789063 628.1633310585323 4218.6449774067105 0 0 0
26882 503 7 -1.0 970.1850769336849 622.2055922952293 4214.882151284098 0 0 0
26881 503 2 0.0 966.5397732930965 623.2025632559387 4215.712280109669 0 0 0
15436 418 15 0.0 974.1000741134591 632.7814272017673 4200.776217636438 0 0 1
15435 418 15 0.0 975.5586807036697 636.2214466084295 4201.714962921489 0 0 1
22356 469 2 0.0 940.3867611011887 640.8719608465485 4209.586631398058 0 0 0
22304 469 14 0.0 924.294675163526 659.1095947797587 4211.434646919702 0 0 0
22353 469 2 0.0 941.7873131905761 648.2769287644652 4209.142316926445 0 0 0
22354 469 2 0.0 942.672567089661 646.159407368391 4212.797027322661 0 0 0
22352 469 12 0.0 938.986759673363 651.4796826547932 4207.813533347239 0 0 0
22349 469 18 0.0 929.8703922995475 655.2589147529853 4203.246921628094 0 0 0
22350 469 5 1.0 933.1907856937466 654.0314207909212 4205.80256053349 0 0 0
22351 469 17 0.0 935.9461656700922 653.3576469593658 4208.260717761541 0 0 0
22348 469 3 1.0 928.9057482270656 657.8745798776403 4200.84349741608 0 0 0
22355 469 9 0.0 941.2350036320016 643.1419546062544 4211.8801757232495 0 0 0
22305 469 2 0.0 924.6433704014976 660.1590784869146 4208.106748132851 0 0 0
22300 469 7 -1.0 925.4650007095903 650.2232881974314 4203.401615362207 0 0 0
22366 469 15 0.0 931.6810917234639 641.3266657886595 4219.693296610207 0 0 0
22303 469 17 0.0 926.7145856632502 656.1641491189032 4212.287054890283 0 0 0
22301 469 2 0.0 926.1801427529606 653.4471121416003 4205.519934615822 0 0 0
22302 469 15 0.0 925.3482890291822 652.8013635855829 4209.835537799019 0 0 0
22299 469 17 0.0 925.3722093829476 648.0560230648254 4200.776099308527 0 0 0
15472 418 2 0.0 955.9364045843782 647.897946265363 4206.677720259176 0 0 1
15473 418 15 0.0 959.0497284547392 650.3227679197638 4207.98252518678 0 0 1
15476 418 15 0.0 949.2902504897074 651.9643917625422 4213.352462920034 0 0 1
15477 418 15 0.0 948.1306124379958 649.1473942509533 4215.410953263302 0 0 1
15471 418 2 0.0 958.0668453006722 647.2184426461665 4203.3321803109375 0 0 1
15474 418 15 0.0 955.1567531092666 651.5099916463275 4210.041141178566 0 0 1
15475 418 15 0.0 951.4158931827437 650.986961096846 4210.366777943356 0 0 1
15468 418 2 0.0 954.504017823407 653.642929452036 4202.828072610432 0 0 1
15467 418 12 0.0 955.4554877745394 656.8688535151118 4205.111164566565 0 0 1
15478 418 15 0.0 946.6160674355425 649.3908740989746 4218.795900521076 0 0 1
15465 418 5 1.0 960.9227349845883 660.961357883645 4200.738011028781 0 0 1
15470 418 9 0.0 958.5998019179385 648.9179447455437 4200.13997532037 0 0 1
15469 418 2 0.0 958.4811429471142 652.4328694257074 4201.178735353877 0 0 1
15466 418 17 0.0 956.8700122058735 659.8168071018384 4202.782456010295 0 0 1
18593 442 15 0.0 991.773265220744 651.2743980597297 4220.833662832699 0 0 0
18879 444 2 0.0 993.721592375398 656.6081042942425 4217.962225945203 -1 -1 1
18878 444 2 0.0 990.1576248370715 658.3078322077425 4216.106728805256 -1 -1 1
12499 93 2 0.0 1005.1536150292305 656.1716763969523 4210.084186203685 -1 0 1
18877 444 14 0.0 989.9014243728368 660.2593004350086 4214.478645296098 -1 -1 1
18883 444 2 0.0 1003.4231463283049 659.5444876213862 4219.8190404663765 -1 -1 1
18884 444 2 0.0 1005.9680659796716 657.1083864632682 4221.070241461006 -1 -1 1
12498 93 14 0.0 1004.882676016158 652.4893038006254 4211.992439011157 -1 0 1
18876 444 17 0.0 993.2178718621794 660.6974164342545 4213.127917437246 -1 -1 1
12503 93 17 0.0 1004.0707046772725 659.7064656815232 4203.880405817114 -1 0 1
18880 444 2 0.0 996.3379327340201 657.6255643716528 4219.0010989786815 -1 -1 1
12500 93 17 0.0 1008.8665077347933 655.3994933076863 4208.830665925564 -1 0 1
12501 93 9 0.0 1009.6968541479034 657.7100131047783 4205.238780225533 -1 0 1
12497 93 7 -1.0 1007.2662367563117 649.8123723317576 4213.561010787802 -1 0 1
12496 93 17 0.0 1010.648661646554 652.5200971599442 4213.2624638886155 -1 0 1
12493 93 2 0.0 1015.8973914036255 656.0477885446251 4217.8830460639965 -1 0 1
12494 93 15 0.0 1012.840185651552 654.0342875697924 4217.899374583911 -1 0 1
12491 93 2 0.0 1014.5300316285253 660.3750013806 4215.408554555928 -1 0 1
12492 93 2 0.0 1014.2637878500569 656.4674125405528 4214.1577418307 -1 0 1
12495 93 9 0.0 1009.5048384770115 654.707697838198 4216.486890558471 -1 0 1
8637 64 2 0.0 1019.0809733020136 651.8914259139761 4203.757561097635 -1 0 0
12502 93 17 0.0 1007.4100155906158 657.8820584067137 4202.336461641227 -1 0 1
8633 64 15 0.0 1018.6425233252999 656.2343177184539 4209.0755673850545 -1 0 0
8632 64 15 0.0 1018.2292568088197 660.2648049538185 4208.654380843917 -1 0 0
8636 64 15 0.0 1019.542870017679 650.5796241942569 4207.163098566922 -1 0 0
8638 64 5 0.0 1020.634292989888 649.178358130935 4200.184239378141 -1 0 0
8634 64 9 0.0 1015.5058137072311 654.7123741984989 4207.174693758659 -1 0 0
8635 64 2 0.0 1015.4007351612413 651.4565649458152 4208.159048881465 -1 0 0
14615 412 9 0.0 905.0894236249715 672.8514200446406 4202.054709133241 0 0 0
14661 412 2 0.0 906.7502747103589 665.9300917207731 4217.776483337147 0 0 0
14662 412 2 0.0 904.9919451036146 663.7385866780583 4220.487966789436 0 0 0
14660 412 9 0.0 909.0046776162704 667.4490447175385 4215.354750469531 0 0 0
14658 412 2 0.0 911.1615429022327 668.2849563693437 4209.831856976526 0 0 0
14657 412 12 0.0 908.8119473884242 670.9678724021528 4208.220525649726 0 0 0
14659 412 2 0.0 909.6089688962867 669.6095929743069 4212.9216588412555 0 0 0
14656 412 17 0.0 905.9607723790516 669.8007096873124 4206.93990754066 0 0 0
14620 412 17 0.0 901.021746852101 677.6799206860381 4206.906463383514 0 0 0
14616 412 17 0.0 905.1131704198634 676.3605545685601 4201.805249152582 0 0 0
14617 412 7 -1.0 902.8036567567074 679.3282737374027 4200.795567339324 0 0 0
14614 412 15 0.0 901.2021162657492 672.3253692059085 4202.006633610053 0 0 0
14655 412 5 1.0 903.0909425696759 668.7967088459792 4209.694024241767 0 0 0
22344 469 12 0.0 935.6901890378393 665.4841287299428 4200.760978717976 0 0 0
22323 469 14 0.0 933.8277325405506 664.3415156905295 4220.431887645676 0 0 0
22322 469 17 0.0 930.6543043629756 663.5866037855166 4219.301774611479 0 0 0
22321 469 15 0.0 929.1416977163248 664.800973317171 4215.69567892985 0 0 0
22307 469 2 0.0 927.6708362647878 663.5234222004251 4206.617184464505 0 0 0
22306 469 2 0.0 924.5993727332072 661.8496492194088 4205.355702549093 0 0 0
4976 37 17 0.0 926.8044290585468 673.5453842653695 4213.802729392153 -1 -1 1
4975 37 5 1.0 928.545622366103 674.1579833558052 4209.868099219855 -1 -1 1
4973 37 3 1.0 929.8081327586484 677.986959511393 4204.539615365349 -1 -1 1
4974 37 18 0.0 930.1205054996258 676.2468945346262 4207.372610183131 -1 -1 1
4978 37 2 0.0 924.9720595881938 666.6216205742603 4215.0723031773805 -1 -1 1
4979 37 2 0.0 923.9629100361262 664.9141445315697 4218.576824219981 -1 -1 1
22320 469 15 0.0 930.0062962778844 666.7201074813345 4212.486978615486 0 0 0
4977 37 12 0.0 925.8180704942035 670.33058187563 4215.810940752873 -1 -1 1
4984 37 15 0.0 932.073275246514 673.4647334869964 4220.503315120092 -1 -1 1
4985 37 15 0.0 935.2747751613514 671.1894976060438 4219.797975472543 -1 -1 1
22315 469 17 0.0 933.033641275471 672.8067671135848 4203.201744133419 0 0 0
22319 469 12 0.0 931.8200869984711 669.2401039866405 4213.2261476362055 0 0 0
22318 469 17 0.0 933.4889692110576 671.0046179231641 4211.0443198692265 0 0 0
22316 469 9 0.0 935.7843071992779 673.1764214004555 4205.368748707598 0 0 0
22317 469 17 0.0 935.9798451062792 673.3175327616942 4209.124620064193 0 0 0
4986 37 15 0.0 936.8946616938096 671.7885303296367 4216.708862762311 -1 -1 1
4987 37 15 0.0 936.4633831641103 675.2992714258179 4216.72549033446 -1 -1 1
4988 37 15 0.0 934.2941922284159 677.6928230475405 4215.0653616552245 -1 -1 1
22314 469 2 0.0 933.0856718602425 674.4312951572977 4200.146565127557 0 0 0
4989 37 9 0.0 934.9651954364958 680.3844110755223 4216.410983094285 -1 -1 1
22340 469 2 0.0 937.8161015649434 665.6356265074234 4212.844647171159 0 0 0
22343 469 2 0.0 937.9795501744384 666.1782323603893 4204.508337026941 0 0 0
22342 469 2 0.0 934.6791085709398 666.3435859672509 4206.911988786923 0 0 0
22341 469 2 0.0 938.0934520498591 664.6004588123517 4209.25020918479 0 0 0
22309 469 15 0.0 926.8530028498642 670.0051184017669 4205.937299583083 0 0 0
22339 469 9 0.0 941.9264545532698 665.6432929081791 4212.692264891488 0 0 0
9691 72 2 0.0 939.935894766201 679.5090303518136 4213.489907209776 0 0 0
9692 72 2 0.0 942.2263251602516 681.1420471540885 4211.624210611928 0 0 0
4994 37 5 0.0 935.7962123924964 680.5571553685754 4204.009558422612 -1 -1 1
9689 72 9 0.0 939.8224156719137 680.2608090681506 4220.180064843629 0 0 0
9690 72 2 0.0 940.9596688070856 679.9425867931225 4216.833816296785 0 0 0
22311 469 17 0.0 924.6889279374213 673.81589296351 4201.869427223526 0 0 0
22308 469 2 0.0 926.2183501626059 666.8499977128274 4207.701901133647 0 0 0
22347 469 6 0.0 928.1429344389871 662.1736444375817 4200.592719086513 0 0 0
22310 469 9 0.0 924.6867376520316 669.5612110399437 4202.525013131246 0 0 0
22338 469 18 0.0 945.8493056611484 667.9198964407043 4213.318411007461 0 0 0
22337 469 2 0.0 948.4420067285143 666.0233456488086 4215.070132809516 0 0 0
13749 405 44 -1.0 957.7589364893647 672.3511070284616 4204.841284042646 0 0 1
9613 72 17 0.0 955.9807678529563 679.5078095258856 4221.014583290177 0 0 0
9617 72 2 0.0 963.5520898106209 671.0069659501119 4219.1193703417575 0 0 0
9615 72 17 0.0 958.3051854697177 673.6486878170618 4219.763426539472 0 0 0
9614 72 7 -1.0 958.1624562988911 677.5395430198267 4218.591519651866 0 0 0
9616 72 14 0.0 959.7539574646346 671.7739626988007 4216.8997543649675 0 0 0
13750 405 44 -1.0 954.1825241801845 673.0258916105029 4208.154982930221 0 0 1
9612 72 2 0.0 951.9839321764547 679.4403209593465 4220.861543752363 0 0 0
22336 469 15 0.0 951.1050191648897 667.8415298826776 4216.559782454659 0 0 0
22335 469 15 0.0 949.3330067406829 668.6522385556933 4219.497217706862 0 0 0
9696 72 14 0.0 943.4787038450481 677.3153449799667 4202.97021834482 0 0 0
9695 72 9 0.0 945.8838220974228 679.9505233827545 4204.243996178394 0 0 0
13748 405 44 -1.0 958.6652419398048 672.9365601335868 4200.659885033278 0 0 1
9618 72 5 1.0 966.6137610398694 672.6747206033173 4217.852780609381 0 0 0
9619 72 2 0.0 969.0320605598832 671.3475228712064 4220.50290391755 0 0 0
13729 405 44 -1.0 977.004719467314 680.7058581513649 4218.194581904744 0 0 1
8507 64 6 0.0 967.8017226103124 681.2004777575016 4209.074874074586 -1 0 0
13739 405 44 -1.0 985.193667748213 668.8130626409476 4200.288855068161 0 0 1
12454 93 2 0.0 1003.97470599926 663.0713269846461 4216.393065876195 -1 0 1
18882 444 2 0.0 999.8463165294505 662.0293483327529 4219.741529065419 -1 -1 1
12453 93 5 1.0 1005.0279549843982 661.4118764667098 4212.775969056884 -1 0 1
12452 93 2 0.0 1005.9429097807168 664.2365191812796 4210.44083752453 -1 0 1
12524 93 9 0.0 987.7289160830285 678.2317101481883 4202.528189192214 -1 0 1
8527 64 2 0.0 991.8001832067378 677.668945227881 4209.113333731588 -1 0 0
8526 64 5 1.0 992.3122770787667 681.6494830804999 4210.50159213132 -1 0 0
13735 405 44 -1.0 986.3948907322078 668.0170051240452 4215.569538221211 0 0 1
13738 405 44 -1.0 986.0715960867966 664.9254180786583 4203.889279569453 0 0 1
13737 405 44 -1.0 990.0911975752102 665.5871741781248 4207.2674673917645 0 0 1
13736 405 44 -1.0 987.457549767063 669.3839574093897 4210.847750539417 0 0 1
13734 405 44 -1.0 985.5710075305742 669.8426298178173 4220.0916605383145 0 0 1
8529 64 2 0.0 997.392840671121 679.860630534748 4207.27449700469 -1 0 0
8528 64 2 0.0 994.7097444874005 676.2254801332226 4207.721491428513 -1 0 0
18875 444 2 0.0 995.2849403361286 664.7103139509742 4213.96508627978 -1 -1 1
12456 93 17 0.0 1005.0749178137265 668.1479567536177 4215.445359979733 -1 0 1
12455 93 2 0.0 1001.6295392471848 666.285427768389 4214.626817660573 -1 0 1
18872 444 15 0.0 999.7294941588643 670.9844206730417 4218.406131707641 -1 -1 1
18873 444 2 0.0 997.7212773755604 671.2300978463982 4214.949487343103 -1 -1 1
18874 444 15 0.0 996.9496240548202 668.0798886847743 4213.374521883152 -1 -1 1
12504 93 12 0.0 1004.7914633744311 662.6510177311561 4204.732396371197 -1 0 1
12447 93 2 0.0 1006.6010123233204 679.5868385605644 4202.729468743583 -1 0 1
12451 93 14 0.0 1006.9151680952607 668.210428742059 4208.602503186147 -1 0 1
12523 93 18 0.0 990.2543760509856 680.1558825705004 4200.81387135136 -1 0 1
12522 93 2 0.0 993.0008189850948 679.484162090124 4203.663063154989 -1 0 1
12507 93 17 0.0 1003.1669134260384 671.8029372404591 4201.69612091839 -1 0 1
12506 93 15 0.0 1001.8019077351998 669.2284884403667 4203.134735488396 -1 0 1
18881 444 5 1.0 996.3493030038542 661.5972687597789 4219.6759044013215 -1 -1 1
13733 405 44 -1.0 989.05045304023 674.6519650548918 4220.386155113822 0 0 1
18870 444 2 0.0 1005.2325277973879 673.1880127576908 4220.251716187266 -1 -1 1
18871 444 5 1.0 1001.505912806427 674.4689098602529 4218.318739699466 -1 -1 1
12505 93 15 0.0 1002.2216960651364 665.4003343984854 4203.962929680011 -1 0 1
12490 93 2 0.0 1011.3670874748917 663.3903945528017 4216.327021912843 -1 0 1
12489 93 14 0.0 1009.2264177411041 662.0734552626163 4219.20858900474 -1 0 1
12457 93 14 0.0 1008.8562593772093 669.5577977559698 4214.17323358886 -1 0 1
12458 93 15 0.0 1012.195509655046 669.8611537324471 4211.623326707206 -1 0 1
12459 93 2 0.0 1012.6778116427618 675.2082338261 4210.729351652731 -1 0 1
8631 64 15 0.0 1016.5191460349002 663.6199311843778 4207.775886120239 -1 0 0
8630 64 15 0.0 1019.1938460154762 664.7559917506243 4211.081289331067 -1 0 0
12449 93 7 -1.0 1008.4785170671543 673.3914162512895 4204.909712393647 -1 0 1
12448 93 17 0.0 1008.8609053148392 676.2364245661195 4202.241929410321 -1 0 1
12450 93 17 0.0 1009.7220173750649 670.5775139611578 4207.309010135749 -1 0 1
12463 93 14 0.0 1012.7187547998191 675.4258288056086 4218.346819956204 -1 0 1
12462 93 2 0.0 1013.9981139589491 679.5243532302009 4217.378254165953 -1 0 1
12460 93 5 1.0 1011.4125853428317 678.856679946857 4211.932988341446 -1 0 1
12461 93 2 0.0 1013.1451581648361 679.9412612975337 4214.283362434045 -1 0 1
12464 93 2 0.0 1014.0027314810998 672.0513931507869 4215.816733281545 -1 0 1
8629 64 15 0.0 1019.7617353198158 668.7618600140662 4211.222854350285 -1 0 0
8628 64 15 0.0 1018.4764827394528 672.2523456347286 4212.023444219497 -1 0 0
12465 93 2 0.0 1015.5438365934679 668.1314792095268 4216.074055190179 -1 0 1
12466 93 15 0.0 1018.602932522973 670.0674066466535 4216.373191354975 -1 0 1
12467 93 5 1.0 1018.3855243642685 671.2602634072965 4220.663350843048 -1 0 1
12468 93 2 0.0 1018.2892097743784 667.685627017077 4221.09238636712 -1 0 1
8625 64 9 0.0 1025.417449494141 673.2483475829124 4218.711923935487 -1 0 0
8624 64 2 0.0 1022.0674433578187 674.9247895856939 4220.491503607488 -1 0 0
8626 64 2 0.0 1023.6074951857079 674.8891365010537 4215.344049364946 -1 0 0
8627 64 2 0.0 1019.7133354592843 674.8117950944875 4215.038897230657 -1 0 0
41979 1221 44 -1.0 1026.3469423364693 681.1935165006525 4220.745953761928 0 0 1
11260 84 15 -1.0 914.5607186787099 692.6019213785913 4206.283281986638 0 0 0
14576 412 17 0.0 903.856961275772 692.624163829933 4201.986018396773 0 0 0
14560 412 2 0.0 909.1277846649217 688.3557678425362 4212.471646975593 0 0 0
14561 412 5 1.0 907.1278993514018 690.0642735794829 4210.835068305024 0 0 0
14577 412 14 0.0 904.9639367889973 696.5126492457656 4201.402893947522 0 0 0
14578 412 15 0.0 904.6127812182165 700.8990938681594 4200.425978382436 0 0 0
14563 412 2 0.0 908.632096289075 691.9863796106101 4216.764150817482 0 0 0
14562 412 2 0.0 906.8871432912256 692.6157653237689 4213.460617821953 0 0 0
14564 412 2 0.0 905.8984458989926 694.8576867808955 4219.888399986922 0 0 0
11263 84 2 0.0 914.1925577521421 702.0213010574968 4205.209527925438 0 0 0
11262 84 7 -1.0 915.7022524677675 698.1600695364011 4205.835773007153 0 0 0
14565 412 14 0.0 904.1060623996932 697.431807004331 4216.856388928901 0 0 0
14559 412 2 0.0 910.5685345882252 688.1603028181789 4216.51889338222 0 0 0
11261 84 2 0.0 912.7396610319729 695.8168449768241 4205.049394099263 0 0 0
4965 37 2 0.0 920.4430634462758 693.9401804900665 4216.518100376635 -1 -1 1
14546 412 15 0.0 914.1896896348726 695.0675532297938 4218.290621879923 0 0 0
14545 412 15 0.0 914.0987427768777 691.5253212002949 4219.311862151565 0 0 0
4959 37 5 1.0 919.8226290589142 694.6852684224124 4203.301518376685 -1 -1 1
14548 412 12 0.0 914.887279758303 700.8417219254983 4217.537396055784 0 0 0
14558 412 2 0.0 907.3241348899214 688.5647493701938 4218.191664937128 0 0 0
14547 412 15 0.0 914.6535117979562 697.3518737022783 4216.244125952725 0 0 0
4964 37 9 0.0 918.3676210364449 691.8090631187422 4213.640588504758 -1 -1 1
11259 84 2 0.0 913.8954053092456 690.9459326785476 4202.999343360736 0 0 0
21968 467 15 0.0 919.3925275438329 701.1433766650067 4213.327782708744 0 0 2
21967 467 6 0.0 921.150885357863 697.9695300932538 4212.347219193888 0 0 2
14566 412 2 0.0 901.9032451504642 694.4394620939568 4215.679466692505 0 0 0
4958 37 2 0.0 921.1492119967982 697.3556785729143 4201.020385788605 -1 -1 1
4957 37 2 0.0 919.6672459631659 700.5421478106854 4202.940612799931 -1 -1 1
14557 412 14 0.0 905.2558901350332 687.7725503140605 4220.47907998084 0 0 0
14544 412 6 0.0 911.8268070958616 690.4429923546496 4220.721914458601 0 0 0
14567 412 2 0.0 901.3396794041363 691.2555942165503 4213.597985047728 0 0 0
14575 412 2 0.0 900.172079034473 693.1752439571777 4201.621741281134 0 0 0
4972 37 6 0.0 929.3830600357785 681.9697065464478 4206.520155767162 -1 -1 1
4971 37 14 0.0 930.1389805222242 682.2733214878176 4210.186020733353 -1 -1 1
4970 37 9 0.0 927.1404466945045 685.0948957021852 4210.868793553361 -1 -1 1
4995 37 14 0.0 934.8701148807213 683.056562043706 4201.326483226374 -1 -1 1
4990 37 2 0.0 933.6075538328171 684.6592882198928 4216.096647262653 -1 -1 1
4991 37 15 0.0 934.6644512695822 684.8882924513465 4211.732284432392 -1 -1 1
4968 37 2 0.0 926.0765215209481 687.1237744785346 4216.212510305526 -1 -1 1
4969 37 12 0.0 924.9459137931922 683.5770785287624 4213.636293048035 -1 -1 1
4966 37 2 0.0 923.0963521563382 690.5093022802341 4217.643802266135 -1 -1 1
4967 37 2 0.0 922.3944529149101 688.1781462989607 4215.564646957779 -1 -1 1
4993 37 5 0.0 937.1810037970242 681.9607248540641 4207.543808291895 -1 -1 1
4992 37 2 0.0 936.434246155546 685.1857428638351 4208.29742035024 -1 -1 1
4963 37 18 0.0 921.4992685199917 692.993488068657 4211.175277237261 -1 -1 1
4961 37 15 0.0 925.6273215328586 691.9195517534378 4205.240096935904 -1 -1 1
9587 72 6 0.0 939.2976854256488 691.9126290848296 4207.597842873716 0 0 0
9588 72 15 0.0 937.3744931319806 691.8146290288661 4211.257541634228 0 0 0
9590 72 15 0.0 936.4697272632598 696.372348534112 4215.2970949276105 0 0 0
9589 72 6 0.0 935.7462062282217 692.4294519851927 4214.8308735527025 0 0 0
9591 72 15 0.0 935.7433779841167 700.5712378061365 4216.00800662849 0 0 0
9586 72 1 0.0 939.9793416513902 695.0583191648078 4206.778910025214 0 0 0
4960 37 15 0.0 923.5719070556056 693.4486428594789 4202.328635845882 -1 -1 1
4962 37 2 0.0 924.5903868610737 691.4443945205185 4209.176526960906 -1 -1 1
9592 72 15 0.0 938.6135114571144 701.1083769365416 4218.273243610426 0 0 0
9593 72 12 0.0 942.2779902465392 700.9759927089814 4217.964550327646 0 0 0
9597 72 15 0.0 941.8084784145841 691.4762742043481 4217.529336212861 0 0 0
9596 72 5 1.0 942.5120227296487 694.6658047617894 4214.987194882283 0 0 0
21973 467 12 0.0 932.7802684886024 699.6605189848744 4205.696979490711 0 0 2
21966 467 1 0.0 923.6059857519059 698.8165693581593 4208.151519579861 0 0 2
21971 467 15 0.0 927.7406131181392 701.9106437008204 4210.804409726476 0 0 2
21970 467 15 0.0 925.9577312193646 700.6305777599918 4212.470375933781 0 0 2
21972 467 15 0.0 931.6283663097095 701.2461280389407 4209.513185910656 0 0 2
21974 467 5 1.0 931.0351610540212 696.6356555465237 4203.596862753343 0 0 2
21975 467 2 0.0 929.4093562459889 698.1354524576622 4200.418303659737 0 0 2
9694 72 12 0.0 944.1022706036825 683.0247088116681 4205.8920739476625 0 0 0
9693 72 2 0.0 945.9442288001219 682.492551957439 4209.742602116412 0 0 0
9594 72 5 1.0 945.418509365029 700.9991809386026 4215.7913814189005 0 0 0
9595 72 2 0.0 944.995165933739 697.4385070451917 4213.52106175515 0 0 0
9598 72 2 0.0 944.1585764299375 688.79718556392 4218.129041943191 0 0 0
9600 72 2 0.0 949.8028565519759 692.3080128925536 4214.978947041902 0 0 0
9599 72 15 0.0 945.6962156831162 689.8180311452687 4214.198252993546 0 0 0
9602 72 14 0.0 948.1632643029998 691.9019705593508 4221.091072136014 0 0 0
9601 72 17 0.0 949.3167696046903 693.8388904400751 4217.839984633052 0 0 0
8506 64 1 0.0 965.0939679072286 684.186691611262 4207.67140527239 -1 0 0
8514 64 5 1.0 983.6459663098098 681.8532065369528 4208.416229203829 -1 0 0
8513 64 12 0.0 982.8340031360909 682.9739402980468 4204.566814415422 -1 0 0
8512 64 15 0.0 979.5029891975748 684.0031881584574 4202.649307353372 -1 0 0
8511 64 15 0.0 978.1543636887195 686.4761925033357 4204.889787177744 -1 0 0
8508 64 15 0.0 970.3035567573543 684.8197318035938 4208.351926503625 -1 0 0
8516 64 5 1.0 978.93960031007 687.8208899832158 4211.684045257649 -1 0 0
8515 64 2 0.0 981.0910240227042 685.4239208411233 4209.431000208719 -1 0 0
8517 64 15 0.0 980.9460307899255 690.8794082162996 4210.633723083698 -1 0 0
8518 64 2 0.0 983.0927837612627 690.9038543717157 4212.9138879677475 -1 0 0
13728 405 44 -1.0 972.8623978871125 683.6123375196856 4217.26045795257 0 0 1
13727 405 44 -1.0 968.594393457559 686.0182625371364 4217.688220304083 0 0 1
8519 64 15 0.0 983.0228472956235 690.1675473743128 4216.846241002866 -1 0 0
8520 64 2 0.0 984.0304729397009 687.6719360469147 4219.398873137199 -1 0 0
8510 64 15 0.0 974.5175101947002 688.3229009672557 4205.848821222881 -1 0 0
8509 64 6 0.0 973.4756561993273 684.3396297144646 4206.662556092267 -1 0 0
8530 64 14 0.0 1000.8472146650208 682.4987264859733 4207.689615318435 -1 0 0
12442 93 2 0.0 1002.3786036844785 683.3396386819961 4213.0985811253095 -1 0 1
12441 93 5 1.0 1000.4718552590584 683.8426581673883 4216.251085599037 -1 0 1
12444 93 2 0.0 1005.5446514671303 685.282669241168 4208.847812219674 -1 0 1
12446 93 2 0.0 1006.6871118896813 682.9609863484469 4203.473870964145 -1 0 1
8524 64 2 0.0 994.2608744680889 682.8697373279861 4215.671177775252 -1 0 0
8525 64 2 0.0 995.7913330286146 683.2290760091356 4212.172143231274 -1 0 0
8531 64 2 0.0 1000.0942871153396 685.6557024528486 4205.427626420813 -1 0 0
8532 64 2 0.0 1000.0952264557493 689.8829405511183 4207.087466054262 -1 0 0
8523 64 2 0.0 991.5758829460536 685.9554004875362 4215.952639026397 -1 0 0
8522 64 14 0.0 987.8362522096475 686.1530572051901 4215.317189415275 -1 0 0
12443 93 2 0.0 1005.2736923856338 682.9816129970096 4211.048962345395 -1 0 1
12520 93 15 0.0 994.0201782908432 685.349599626317 4201.989536979058 -1 0 1
8521 64 17 0.0 985.9431796562963 685.5392342707223 4218.466288301612 -1 0 0
8533 64 17 0.0 1002.1827564536244 689.3978751722798 4210.645330199611 -1 0 0
8536 64 14 0.0 994.3972457877223 689.6768254066797 4207.871095551009 -1 0 0
8535 64 17 0.0 996.4095818450727 688.3855436963835 4210.243461614117 -1 0 0
8537 64 2 0.0 995.1137831630525 691.5642617356671 4204.137099077239 -1 0 0
8534 64 7 -1.0 999.61052906062 687.4127222214966 4211.466713780064 -1 0 0
8538 64 5 1.0 998.3992810935054 690.5222992607322 4202.261522097214 -1 0 0
12521 93 15 0.0 994.0775261682294 683.1994128615568 4204.776684714197 -1 0 1
12518 93 2 0.0 998.8276901222595 682.8413497138392 4200.340492148212 -1 0 1
3038 23 17 0.0 1004.6707213378857 700.8721325266657 4203.397092968468 -1 0 0
3037 23 15 0.0 1004.5576065612352 697.0169492497816 4203.421366133608 -1 0 0
12440 93 2 0.0 999.7827916314624 682.018866462845 4219.948113007325 -1 0 1
12517 93 2 0.0 1002.4622452928813 683.6025067081849 4201.965172340117 -1 0 1
8546 64 2 0.0 1015.0661128101005 682.4101406188402 4200.035414164409 -1 0 0
8548 64 14 0.0 1019.9904870902471 685.0174911338551 4200.132160414517 -1 0 0
8545 64 5 1.0 1011.190701044491 683.0884222553843 4200.0415931042135 -1 0 0
26593 501 15 0.0 1026.834486362134 699.7873223763661 4203.267950334971 0 -1 0
12445 93 14 0.0 1008.578150447084 685.3385264945161 4206.10134956216 -1 0 1
3033 23 2 0.0 1014.0274707619959 693.1798978869442 4207.0148532538315 -1 0 0
3032 23 14 0.0 1017.2627994177077 693.8527785123908 4209.204801133435 -1 0 0
3031 23 2 0.0 1018.535886240278 695.6695319367262 4212.841827599974 -1 0 0