LAMMPS data file via write_data, version 22 Aug 2018, timestep = 1000000

13040 atoms
41 atom types
12960 bonds
1 bond types

2.4000000000000000e+02 4.1250000000000000e+02 xlo xhi
2.4800000000000000e+02 4.2050000000000000e+02 ylo yhi
2.8840000000000000e+03 3.0565000000000000e+03 zlo zhi

Masses

1 131.2
2 57.05
3 128.2
4 101.1
5 156.2
6 71.08
7 115.1
8 129.1
9 163.2
10 99.07
11 113.2
12 128.1
13 186.2
14 147.2
15 87.08
16 137.1
17 114.1
18 97.12
19 103.1
20 113.2
21 131.2
22 57.05
23 128.2
24 101.1
25 156.2
26 71.08
27 115.1
28 129.1
29 163.2
30 99.07
31 113.2
32 128.1
33 186.2
34 147.2
35 87.08
36 137.1
37 114.1
38 97.12
39 103.1
40 113.2
41 113.2

Bond Coeffs # harmonic

1 2.39 3.81

Atoms # full

2807 18 12 0.0000000000000000e+00 2.4721914652616289e+02 2.5576257292300468e+02 2.9001973644799768e+03 0 -1 -1
2808 18 15 0.0000000000000000e+00 2.4569271114372938e+02 2.5272690709740726e+02 2.9009419752532544e+03 0 -1 -1
2805 18 2 0.0000000000000000e+00 2.5243974240116137e+02 2.5901789831902909e+02 2.9020253422430605e+03 0 -1 -1
2809 18 9 0.0000000000000000e+00 2.4255755908404842e+02 2.5264835932980978e+02 2.9022880154929780e+03 0 -1 -1
1116 7 2 0.0000000000000000e+00 2.5511357298401052e+02 2.5306502844046881e+02 2.9007252558237260e+03 -1 0 -1
1117 7 12 0.0000000000000000e+00 2.5580838930227051e+02 2.5532010565206068e+02 2.9038306606813130e+03 -1 0 -1
2800 18 15 0.0000000000000000e+00 2.4807945351983773e+02 2.6143832105032482e+02 2.8857009501279513e+03 0 -1 -1
2803 18 18 0.0000000000000000e+00 2.5060396900141890e+02 2.5982760521163971e+02 2.8936592458614732e+03 0 -1 -1
2804 18 9 0.0000000000000000e+00 2.5262445169624021e+02 2.5819729616711163e+02 2.8970637054714384e+03 0 -1 -1
2802 18 12 0.0000000000000000e+00 2.4770156536178601e+02 2.6070458276860063e+02 2.8916671393868810e+03 0 -1 -1
2801 18 15 0.0000000000000000e+00 2.4938481710967847e+02 2.6249094037024361e+02 2.8889691443700804e+03 0 -1 -1
1119 7 12 0.0000000000000000e+00 2.6088716714414915e+02 2.5345986191519651e+02 2.9004976005792655e+03 -1 0 -1
1118 7 12 0.0000000000000000e+00 2.6045204906095609e+02 2.5490241804452006e+02 2.9043133918639337e+03 -1 0 -1
10943 68 2 0.0000000000000000e+00 2.5127743518077807e+02 2.5703706061631954e+02 2.8843383712502978e+03 0 -1 -1
2806 18 12 0.0000000000000000e+00 2.4984281375716731e+02 2.5667265508908736e+02 2.9030326956414106e+03 0 -1 -1
2810 18 15 0.0000000000000000e+00 2.4007132988220368e+02 2.5105555216653480e+02 2.8995467358512933e+03 0 -1 -1
10942 68 18 0.0000000000000000e+00 2.5445864235724474e+02 2.5819296250010427e+02 2.8863684704286338e+03 0 -1 -1
10941 68 12 0.0000000000000000e+00 2.5783197211396867e+02 2.5771527576690403e+02 2.8872249291403987e+03 0 -1 -1
2814 18 12 0.0000000000000000e+00 2.4064760746003432e+02 2.5783851484152933e+02 2.8962287495923724e+03 0 -1 -1
2799 18 12 0.0000000000000000e+00 2.4566829181754412e+02 2.6396173373523823e+02 2.8856907954963813e+03 0 -1 -1
1115 7 2 0.0000000000000000e+00 2.5383940774252164e+02 2.4882864180235148e+02 2.9007219420839078e+03 -1 0 -1
2812 18 9 0.0000000000000000e+00 2.4188390790638945e+02 2.5351250374232444e+02 2.8918335595264157e+03 0 -1 -1
2815 18 15 0.0000000000000000e+00 2.4118839575050654e+02 2.5984508089804319e+02 2.8995497971809591e+03 0 -1 -1
2813 18 15 0.0000000000000000e+00 2.4013835180320811e+02 2.5590569529553272e+02 2.8932671300283846e+03 0 -1 -1
10922 68 1 0.0000000000000000e+00 2.5618423441382038e+02 2.6805758919970458e+02 2.8858620705237663e+03 0 -1 -1
2811 18 2 0.0000000000000000e+00 2.4103952395294453e+02 2.5174283505331809e+02 2.8956172943563897e+03 0 -1 -1
10940 68 4 0.0000000000000000e+00 2.5911398885509823e+02 2.5605151367526901e+02 2.8841750205455892e+03 0 -1 -1
1120 7 15 0.0000000000000000e+00 2.6441102226020502e+02 2.5381049998122265e+02 2.8985044163247835e+03 -1 0 -1
1121 7 9 0.0000000000000000e+00 2.6828442451411172e+02 2.5298529471038725e+02 2.8997931706852182e+03 -1 0 -1
5760 36 9 0.0000000000000000e+00 2.7183654175981263e+02 2.5071079614351027e+02 2.8893141921687788e+03 0 -1 -1
1122 7 2 0.0000000000000000e+00 2.6666514667601439e+02 2.5355786090404160e+02 2.9032321013959090e+03 -1 0 -1
10307 64 9 0.0000000000000000e+00 2.7270923186923818e+02 2.5993753915587149e+02 2.8850554123972811e+03 -1 -1 0
10308 64 15 0.0000000000000000e+00 2.7120935623223676e+02 2.5671062207427440e+02 2.8855463585343700e+03 -1 -1 0
5761 36 15 0.0000000000000000e+00 2.6885012567412338e+02 2.5081182606723559e+02 2.8912828147959126e+03 0 -1 -1
5762 36 15 0.0000000000000000e+00 2.6528880830923816e+02 2.5021390387266695e+02 2.8910199221057901e+03 0 -1 -1
1128 7 17 0.0000000000000000e+00 2.8083892706494709e+02 2.5991430509353609e+02 2.9049204078730872e+03 -1 0 -1
1135 7 12 0.0000000000000000e+00 2.8053099271904699e+02 2.6063089276074550e+02 2.8950138952446182e+03 -1 0 -1
1136 7 12 0.0000000000000000e+00 2.7853135542455300e+02 2.5843491223748367e+02 2.8930807391862800e+03 -1 0 -1
5759 36 15 0.0000000000000000e+00 2.7136696991588127e+02 2.4843021742719969e+02 2.8863327527328256e+03 0 -1 -1
10302 64 9 0.0000000000000000e+00 2.8232563536165304e+02 2.6089037750090665e+02 2.8840768254404325e+03 -1 -1 0
1137 7 17 0.0000000000000000e+00 2.8163114034578314e+02 2.5649115913967285e+02 2.8911936467569103e+03 -1 0 -1
1138 7 12 0.0000000000000000e+00 2.8232920010049304e+02 2.5256945088051944e+02 2.8903422076355514e+03 -1 0 -1
6413 40 15 0.0000000000000000e+00 2.9840997692711227e+02 2.5817854332528941e+02 2.8912857094041910e+03 0 -1 -1
6414 40 15 0.0000000000000000e+00 2.9709990952591573e+02 2.5543958033459469e+02 2.8886973264570947e+03 0 -1 -1
6415 40 9 0.0000000000000000e+00 3.0023299074170762e+02 2.5392613234834093e+02 2.8877558216743751e+03 0 -1 -1
2550 16 6 0.0000000000000000e+00 2.9268456235287232e+02 2.4866379435891329e+02 2.8882750764333300e+03 -1 -1 -1
6416 40 2 0.0000000000000000e+00 3.0014963810530423e+02 2.5123035915701118e+02 2.8854519443212712e+03 0 -1 -1
1131 7 12 0.0000000000000000e+00 2.8959746916688027e+02 2.5580281765759287e+02 2.9001869311440405e+03 -1 0 -1
1130 7 18 0.0000000000000000e+00 2.8618018012960567e+02 2.5574189358669560e+02 2.9025444353798139e+03 -1 0 -1
1134 7 2 0.0000000000000000e+00 2.8400241981766050e+02 2.6022920578489106e+02 2.8933314836349000e+03 -1 0 -1
8401 52 12 0.0000000000000000e+00 2.8650244852704350e+02 2.6787125055493664e+02 2.8962478301344536e+03 0 -1 -1
1133 7 9 0.0000000000000000e+00 2.8741991082086349e+02 2.6065833150717265e+02 2.8947671426905472e+03 -1 0 -1
1132 7 2 0.0000000000000000e+00 2.8927845374350625e+02 2.5801662754625738e+02 2.8974570110309978e+03 -1 0 -1
8400 52 15 0.0000000000000000e+00 2.8542599725124182e+02 2.6795940056216091e+02 2.9001338320372574e+03 0 -1 -1
6412 40 9 0.0000000000000000e+00 3.0124608183535446e+02 2.5976021931951175e+02 2.8935943917263726e+03 0 -1 -1
6411 40 15 0.0000000000000000e+00 2.9925535900627489e+02 2.6358854428596328e+02 2.8928625588438213e+03 0 -1 -1
6409 40 12 0.0000000000000000e+00 2.9317944831201038e+02 2.6612103677320192e+02 2.8884470238457993e+03 0 -1 -1
6410 40 15 0.0000000000000000e+00 2.9590693153161538e+02 2.6487856414584644e+02 2.8914652093195068e+03 0 -1 -1
6408 40 2 0.0000000000000000e+00 2.9701565978028754e+02 2.6472168552780045e+02 2.8870217570463174e+03 0 -1 -1
6407 40 9 0.0000000000000000e+00 2.9827554246212685e+02 2.6091272627109834e+02 2.8865120221164384e+03 0 -1 -1
8399 52 15 0.0000000000000000e+00 2.8647099142773635e+02 2.6618941822856061e+02 2.9027918449666240e+03 0 -1 -1
2547 16 12 0.0000000000000000e+00 2.9078861004972777e+02 2.5127596396173800e+02 2.8970576655225991e+03 -1 -1 -1
1139 7 9 0.0000000000000000e+00 2.8436234843538921e+02 2.5001274506355327e+02 2.8938839065958300e+03 -1 0 -1
2548 16 12 0.0000000000000000e+00 2.9172658594022170e+02 2.5222602990579489e+02 2.8939513565784237e+03 -1 -1 -1
10301 64 18 0.0000000000000000e+00 2.8560152296383490e+02 2.5898501991272099e+02 2.8845049254518340e+03 -1 -1 0
2549 16 18 0.0000000000000000e+00 2.9217198892411727e+02 2.5184457115139830e+02 2.8904048754213673e+03 -1 -1 -1
6406 40 2 0.0000000000000000e+00 3.0157127075488887e+02 2.6376498898951002e+02 2.8860925845096822e+03 0 -1 -1
6418 40 15 0.0000000000000000e+00 2.9248622266317625e+02 2.5291697503841320e+02 2.8848323540513120e+03 0 -1 -1
6421 40 4 0.0000000000000000e+00 2.8710640597804854e+02 2.5037267433113735e+02 2.8866385061762358e+03 0 -1 -1
8395 52 2 0.0000000000000000e+00 2.9484132231267955e+02 2.6762992723843035e+02 2.9044762354564759e+03 0 -1 -1
8398 52 12 0.0000000000000000e+00 2.8901308839436882e+02 2.6346519547896003e+02 2.9033060734042760e+03 0 -1 -1
2546 16 2 0.0000000000000000e+00 2.9143974829965833e+02 2.5056972144083679e+02 2.9007243275359092e+03 -1 -1 -1
2545 16 9 0.0000000000000000e+00 2.8828183733297197e+02 2.4908156955686295e+02 2.9027654102848314e+03 -1 -1 -1
6422 40 2 0.0000000000000000e+00 2.8557316396006274e+02 2.4807139738611988e+02 2.8843657791213977e+03 0 -1 -1
10300 64 12 0.0000000000000000e+00 2.8948011541221763e+02 2.5929802441455911e+02 2.8840264522898492e+03 -1 -1 0
10282 64 15 0.0000000000000000e+00 3.2299624185635651e+02 2.6850018871906354e+02 2.8954352897729991e+03 -1 -1 0
6397 40 2 0.0000000000000000e+00 3.1858209058174305e+02 2.5799147044519168e+02 2.8872194466559390e+03 0 -1 -1
6398 40 9 0.0000000000000000e+00 3.1708474022679655e+02 2.6140734004924798e+02 2.8854249126727059e+03 0 -1 -1
6395 40 9 0.0000000000000000e+00 3.1995340066425916e+02 2.5555185912716888e+02 2.8939413754542602e+03 0 -1 -1
6394 40 15 0.0000000000000000e+00 3.1835822334524062e+02 2.5543122523838275e+02 2.8974274244005983e+03 0 -1 -1
6393 40 12 0.0000000000000000e+00 3.1588045984074319e+02 2.5507828540825571e+02 2.9005701019566500e+03 0 -1 -1
6396 40 15 0.0000000000000000e+00 3.1884452754387917e+02 2.5520619676015158e+02 2.8897016156185305e+03 0 -1 -1
7539 47 9 0.0000000000000000e+00 3.2327658007543897e+02 2.5990482651249658e+02 2.8972145411730985e+03 -1 0 -1
6392 40 12 0.0000000000000000e+00 3.1712168081701509e+02 2.5579383233236308e+02 2.9037847570711547e+03 0 -1 -1
7535 47 15 0.0000000000000000e+00 3.2337352115462494e+02 2.6852709379498742e+02 2.8883968216237868e+03 -1 0 -1
3455 22 18 0.0000000000000000e+00 3.2333314395686688e+02 2.5035002587349473e+02 2.8943579095488903e+03 0 -1 -1
3457 22 2 0.0000000000000000e+00 3.2466144217055529e+02 2.5473572084145866e+02 2.8989486005039248e+03 0 -1 -1
7538 47 2 0.0000000000000000e+00 3.2440854538028896e+02 2.6106192299425891e+02 2.8934617242150698e+03 -1 0 -1
11924 74 9 0.0000000000000000e+00 2.5192855152532863e+02 2.7763405849252752e+02 2.8965805525982187e+03 0 -2 0
11923 74 2 0.0000000000000000e+00 2.4863374042106435e+02 2.7769836281554331e+02 2.8949158150120766e+03 0 -2 0
11921 74 2 0.0000000000000000e+00 2.5048921189798517e+02 2.7879861311148852e+02 2.8867332536934123e+03 0 -2 0
11922 74 12 0.0000000000000000e+00 2.4905073370131339e+02 2.7786940997331862e+02 2.8902437705989551e+03 0 -2 0
11928 74 15 0.0000000000000000e+00 2.5602845178970910e+02 2.7746270845160541e+02 2.8883711537647787e+03 0 -2 0
11920 74 18 0.0000000000000000e+00 2.5109204148446202e+02 2.8254501879364784e+02 2.8852133799627345e+03 0 -2 0
11919 74 12 0.0000000000000000e+00 2.5087709470339189e+02 2.8546030547773614e+02 2.8870349133045788e+03 0 -2 0
4842 30 15 0.0000000000000000e+00 2.4870555977290701e+02 2.8983835985566418e+02 2.9039825181259716e+03 0 0 -1
4844 30 15 0.0000000000000000e+00 2.4905137609744327e+02 2.8341826568471595e+02 2.9038675031869079e+03 0 0 -1
4843 30 15 0.0000000000000000e+00 2.5086920168207979e+02 2.8718013400438588e+02 2.9038216388398528e+03 0 0 -1
4840 30 9 0.0000000000000000e+00 2.4505115770626867e+02 2.8881401538496914e+02 2.8982326485537965e+03 0 0 -1
4841 30 2 0.0000000000000000e+00 2.4804316437630249e+02 2.8959536836653785e+02 2.9002884349069450e+03 0 0 -1
11930 74 12 0.0000000000000000e+00 2.5675368971239863e+02 2.8397915922527284e+02 2.8879692687616625e+03 0 -2 0
11925 74 15 0.0000000000000000e+00 2.5475832647991854e+02 2.7578683184864303e+02 2.8942144654274903e+03 0 -2 0
11927 74 12 0.0000000000000000e+00 2.5662788263810040e+02 2.7392629099821238e+02 2.8881519479292597e+03 0 -2 0
11918 74 4 0.0000000000000000e+00 2.5135899506204063e+02 2.8722538208186188e+02 2.8905687712218805e+03 0 -2 0
11917 74 18 0.0000000000000000e+00 2.5388039207075619e+02 2.8833128821675564e+02 2.8934528553961673e+03 0 -2 0
1555 10 12 0.0000000000000000e+00 2.6020248446109684e+02 2.8864209426068032e+02 2.8900941387318326e+03 0 -1 -1
4839 30 15 0.0000000000000000e+00 2.4378242006484467e+02 2.8863282806752545e+02 2.8948832164630867e+03 0 0 -1
11931 74 18 0.0000000000000000e+00 2.5749696991309770e+02 2.8523000317352023e+02 2.8851170802065631e+03 0 -2 0
11929 74 15 0.0000000000000000e+00 2.5544922851020834e+02 2.8064383085566487e+02 2.8899000825771054e+03 0 -2 0
11926 74 12 0.0000000000000000e+00 2.5607253016036856e+02 2.7308023552278564e+02 2.8917573910823949e+03 0 -2 0
1562 10 15 0.0000000000000000e+00 2.6032479124117435e+02 2.8258689690482652e+02 2.8949579122645277e+03 0 -1 -1
1561 10 12 0.0000000000000000e+00 2.6074851416064240e+02 2.8673835959893370e+02 2.8956819303449147e+03 0 -1 -1
1563 10 15 0.0000000000000000e+00 2.6028092302572276e+02 2.7917009525920844e+02 2.8962258417596686e+03 0 -1 -1
11915 74 6 0.0000000000000000e+00 2.5703472883359660e+02 2.8753021136058749e+02 2.9001645115436609e+03 0 -2 0
11916 74 9 0.0000000000000000e+00 2.5414074257459546e+02 2.8831439352112454e+02 2.8976224582923087e+03 0 -2 0
2819 18 15 0.0000000000000000e+00 2.4134011594320651e+02 2.7110078854862945e+02 2.8990601789191960e+03 0 -1 -1
1557 10 15 0.0000000000000000e+00 2.6440518884340059e+02 2.8482669381393168e+02 2.8871711093287181e+03 0 -1 -1
1571 10 18 0.0000000000000000e+00 2.7993080487483684e+02 2.8157272600953672e+02 2.8860322991184494e+03 0 -1 -1
1556 10 15 0.0000000000000000e+00 2.6241302202245100e+02 2.8756223749872606e+02 2.8861482038342915e+03 0 -1 -1
1567 10 9 0.0000000000000000e+00 2.6845796810899321e+02 2.7918279464559555e+02 2.8888597370408079e+03 0 -1 -1
1559 10 2 0.0000000000000000e+00 2.6531433046106866e+02 2.8830283379466562e+02 2.8917493863564177e+03 0 -1 -1
1560 10 12 0.0000000000000000e+00 2.6330359164946464e+02 2.8926238226354394e+02 2.8951021534616730e+03 0 -1 -1
11902 74 15 0.0000000000000000e+00 2.7420931880233763e+02 2.7654337703245506e+02 2.8935716197143629e+03 0 -2 0
1568 10 2 0.0000000000000000e+00 2.7117779289888477e+02 2.7616136664726992e+02 2.8866311297655275e+03 0 -1 -1
1565 10 18 0.0000000000000000e+00 2.6305671601111129e+02 2.7634671796032740e+02 2.8917219128678257e+03 0 -1 -1
11907 74 12 0.0000000000000000e+00 2.6285788873106526e+02 2.8636612087587309e+02 2.9017885623573516e+03 0 -2 0
11900 74 1 0.0000000000000000e+00 2.7426811706228426e+02 2.8299014052920245e+02 2.8950134951918258e+03 0 -2 0
11901 74 6 0.0000000000000000e+00 2.7525673083408896e+02 2.8032173346922116e+02 2.8923008253011976e+03 0 -2 0
1569 10 12 0.0000000000000000e+00 2.7446256640898912e+02 2.7684435096397726e+02 2.8856476513529842e+03 0 -1 -1
1564 10 9 0.0000000000000000e+00 2.6232105777242901e+02 2.7549524648732961e+02 2.8949859581543597e+03 0 -1 -1
1558 10 9 0.0000000000000000e+00 2.6698102477953728e+02 2.8491570571142449e+02 2.8898022640278004e+03 0 -1 -1
1572 10 6 0.0000000000000000e+00 2.7856408940132002e+02 2.8527136727656841e+02 2.8854900043112666e+03 0 -1 -1
1570 10 12 0.0000000000000000e+00 2.7694872860151747e+02 2.7938839611071671e+02 2.8859387263132699e+03 0 -1 -1
1573 10 18 0.0000000000000000e+00 2.7721492888438809e+02 2.8821472283918604e+02 2.8876254781256735e+03 0 -1 -1
11903 74 17 0.0000000000000000e+00 2.7185949824208291e+02 2.7704044400856321e+02 2.8966866278345951e+03 0 -2 0
11905 74 9 0.0000000000000000e+00 2.6673821578350089e+02 2.8200154406581532e+02 2.9002223916394300e+03 0 -2 0
11904 74 7 -1.0000000000000000e+00 2.6864516656570430e+02 2.7933289655233648e+02 2.8976244731545657e+03 0 -2 0
11906 74 4 0.0000000000000000e+00 2.6649141108261165e+02 2.8619945526063282e+02 2.9001284919435479e+03 0 -2 0
1566 10 2 0.0000000000000000e+00 2.6481371325620023e+02 2.7846016437547530e+02 2.8899620001512612e+03 0 -1 -1
8389 52 2 0.0000000000000000e+00 2.9390114801783631e+02 2.7731149086698099e+02 2.8944841538180622e+03 0 -1 -1
8391 52 4 0.0000000000000000e+00 2.9450485787780792e+02 2.7652513139347650e+02 2.9001752751066824e+03 0 -1 -1
8392 52 2 0.0000000000000000e+00 2.9226335483906269e+02 2.7387483125371352e+02 2.9013177924440333e+03 0 -1 -1
8390 52 15 0.0000000000000000e+00 2.9637525976771542e+02 2.7500136405045225e+02 2.8968042893104571e+03 0 -1 -1
8410 52 9 0.0000000000000000e+00 2.8616861816993043e+02 2.8614291663448330e+02 2.9014832637586928e+03 0 -1 -1
8393 52 2 0.0000000000000000e+00 2.9416913235439711e+02 2.7156110451245297e+02 2.9026084978768376e+03 0 -1 -1
8388 52 9 0.0000000000000000e+00 2.9405008817784068e+02 2.7970960257594584e+02 2.8921683063188584e+03 0 -1 -1
8387 52 2 0.0000000000000000e+00 2.9066992652573953e+02 2.7922666712385433e+02 2.8909633442935919e+03 0 -1 -1
8403 52 15 0.0000000000000000e+00 2.8609414940533213e+02 2.7409839158205966e+02 2.8986033697938574e+03 0 -1 -1
8408 52 15 0.0000000000000000e+00 2.8924152643086666e+02 2.8444883832889843e+02 2.8950750195686915e+03 0 -1 -1
8404 52 9 0.0000000000000000e+00 2.8254236650365215e+02 2.7502230308327148e+02 2.8987386827327887e+03 0 -1 -1
8405 52 2 0.0000000000000000e+00 2.8253398118661698e+02 2.7823456776082446e+02 2.8966281707615371e+03 0 -1 -1
8406 52 12 0.0000000000000000e+00 2.8543446217300266e+02 2.8033198088630786e+02 2.8946487193613107e+03 0 -1 -1
8402 52 15 0.0000000000000000e+00 2.8669708982512611e+02 2.7215377237617724e+02 2.8955756688163469e+03 0 -1 -1
8407 52 12 0.0000000000000000e+00 2.8526206222828773e+02 2.8424614945835037e+02 2.8943183612310813e+03 0 -1 -1
8409 52 15 0.0000000000000000e+00 2.8939465349768341e+02 2.8538254076338171e+02 2.8987323988019562e+03 0 -1 -1
10291 64 2 0.0000000000000000e+00 3.0230069227892625e+02 2.8252138453663599e+02 2.8862412475225578e+03 -1 -1 0
8327 52 9 0.0000000000000000e+00 2.9731010082292198e+02 2.8278726116860344e+02 2.9024312776332099e+03 0 -1 -1
8329 52 6 0.0000000000000000e+00 2.9695539326145740e+02 2.8836404271789854e+02 2.9000780860100103e+03 0 -1 -1
8330 52 9 0.0000000000000000e+00 2.9638990198757011e+02 2.8736973974872706e+02 2.8965441533981875e+03 0 -1 -1
8422 52 4 0.0000000000000000e+00 2.8822961712156598e+02 2.8987953174305483e+02 2.8961987267423824e+03 0 -1 -1
10293 64 2 0.0000000000000000e+00 2.9663359161414013e+02 2.7757140394775820e+02 2.8846438967860695e+03 -1 -1 0
8328 52 2 0.0000000000000000e+00 2.9490380532615450e+02 2.8617341817890303e+02 2.9017324771339286e+03 0 -1 -1
7660 47 17 0.0000000000000000e+00 2.8838795403317317e+02 2.8644377488745579e+02 2.8854318228909319e+03 -1 0 -1
8331 52 18 0.0000000000000000e+00 3.0036146538144646e+02 2.8763407035556679e+02 2.8949242540303849e+03 0 -1 -1
7661 47 15 0.0000000000000000e+00 2.8541105713397081e+02 2.8552316848066152e+02 2.8878004592451866e+03 -1 0 -1
8332 52 4 0.0000000000000000e+00 3.0114004854989366e+02 2.8843357582672661e+02 2.8916894631455789e+03 0 -1 -1
8385 52 18 0.0000000000000000e+00 2.8650672150111285e+02 2.7956799961715080e+02 2.8852169268940052e+03 0 -1 -1
8386 52 12 0.0000000000000000e+00 2.8734489603691952e+02 2.7998818656063668e+02 2.8889484648854973e+03 0 -1 -1
8394 52 9 0.0000000000000000e+00 2.9685865700696542e+02 2.6935537888667704e+02 2.9022119878895724e+03 0 -1 -1
8411 52 18 0.0000000000000000e+00 2.8489526265058311e+02 2.8292916372851073e+02 2.9029640379575635e+03 0 -1 -1
10292 64 12 0.0000000000000000e+00 2.9973054795610733e+02 2.8006433158444338e+02 2.8841195245632671e+03 -1 -1 0
7534 47 12 0.0000000000000000e+00 3.2303437267682676e+02 2.7010921206938679e+02 2.8857033819041503e+03 -1 0 -1
5072 32 4 0.0000000000000000e+00 3.2337801470436358e+02 2.8434111545260362e+02 2.8977467208367057e+03 -1 0 -1
10288 64 4 0.0000000000000000e+00 3.0947207276684247e+02 2.7722565925521019e+02 2.8883969761534513e+03 -1 -1 0
10289 64 12 0.0000000000000000e+00 3.0968540433161297e+02 2.8148329474992727e+02 2.8886551970897872e+03 -1 -1 0
10287 64 18 0.0000000000000000e+00 3.1277969234845131e+02 2.7626254867025602e+02 2.8874347819359136e+03 -1 -1 0
10283 64 9 0.0000000000000000e+00 3.1970516829223419e+02 2.6934973923333075e+02 2.8937610170425105e+03 -1 -1 0
10286 64 9 0.0000000000000000e+00 3.1577619894102122e+02 2.7568571254406993e+02 2.8877148863691882e+03 -1 -1 0
10285 64 6 0.0000000000000000e+00 3.1705899904042985e+02 2.7565619784771525e+02 2.8919205057980535e+03 -1 -1 0
10284 64 2 0.0000000000000000e+00 3.1766113838905244e+02 2.7229861215655956e+02 2.8930690135863692e+03 -1 -1 0
10290 64 18 0.0000000000000000e+00 3.0567829325169259e+02 2.8117832986366989e+02 2.8865890720189586e+03 -1 -1 0
5077 32 2 0.0000000000000000e+00 3.0853070220314578e+02 2.8053461898635601e+02 2.8992577679278866e+03 -1 0 -1
5075 32 2 0.0000000000000000e+00 3.1488800111937223e+02 2.8403090171157214e+02 2.8958205701997208e+03 -1 0 -1
5076 32 12 0.0000000000000000e+00 3.1128895622578136e+02 2.8360765637862335e+02 2.8979076343183542e+03 -1 0 -1
8337 52 2 0.0000000000000000e+00 3.1063960572349617e+02 2.8849965847891565e+02 2.8949560038355739e+03 0 -1 -1
8334 52 18 0.0000000000000000e+00 3.0724859413263522e+02 2.8753147730666251e+02 2.8887528962132014e+03 0 -1 -1
8335 52 2 0.0000000000000000e+00 3.0577433972305874e+02 2.8596084701854545e+02 2.8920106712278230e+03 0 -1 -1
5074 32 18 0.0000000000000000e+00 3.1737384260830686e+02 2.8763290768925083e+02 2.8970642277163761e+03 -1 0 -1
5073 32 12 0.0000000000000000e+00 3.2013446678946048e+02 2.8454259115507398e+02 2.8949580365991515e+03 -1 0 -1
5078 32 9 0.0000000000000000e+00 3.1114937359848761e+02 2.7781640936098051e+02 2.9012691318323805e+03 -1 0 -1
8340 52 12 0.0000000000000000e+00 3.1285626090156688e+02 2.8817803491639722e+02 2.8861193341444355e+03 0 -1 -1
8339 52 15 0.0000000000000000e+00 3.1391637548414741e+02 2.8941809909053677e+02 2.8896840507417701e+03 0 -1 -1
8338 52 9 0.0000000000000000e+00 3.1368874485858692e+02 2.8987435778319593e+02 2.8934764414045644e+03 0 -1 -1
10276 64 4 0.0000000000000000e+00 3.2140413770997623e+02 2.7528459892279614e+02 2.8970226415324291e+03 -1 -1 0
8336 52 12 0.0000000000000000e+00 3.0695494222813051e+02 2.8873028598488838e+02 2.8945901480005823e+03 0 -1 -1
3261 21 1 0.0000000000000000e+00 3.2324225268013453e+02 2.8247597819677401e+02 2.9035351876716327e+03 0 -1 -1
10275 64 9 0.0000000000000000e+00 3.2348739462311590e+02 2.7539319686873273e+02 2.9001177024536860e+03 -1 -1 0
10277 64 12 0.0000000000000000e+00 3.2191119859022729e+02 2.7791840060709933e+02 2.8946647608947333e+03 -1 -1 0
5079 32 15 0.0000000000000000e+00 3.1010892532962674e+02 2.7394186369637919e+02 2.9019164963320104e+03 -1 0 -1
5080 32 12 0.0000000000000000e+00 3.1157381406145794e+02 2.7121083374368823e+02 2.9017455334035708e+03 -1 0 -1
7579 47 9 0.0000000000000000e+00 3.1674983015890240e+02 2.8798320557645104e+02 2.9039005619982263e+03 -1 0 -1
10278 64 12 0.0000000000000000e+00 3.2399310395989204e+02 2.7684393062177776e+02 2.8916590699407056e+03 -1 -1 0
12033 74 18 0.0000000000000000e+00 2.4123700546392200e+02 3.1120877534123736e+02 2.8843586702177608e+03 0 -2 0
1553 10 15 0.0000000000000000e+00 2.5785630263900242e+02 2.9342074458592572e+02 2.8843550084694712e+03 0 -1 -1
12036 74 2 0.0000000000000000e+00 2.4696157913804069e+02 3.0401504438917163e+02 2.8867572085087518e+03 0 -2 0
12023 74 12 0.0000000000000000e+00 2.4097480551822574e+02 3.1126774215366947e+02 2.8950289805454277e+03 0 -2 0
11367 70 15 0.0000000000000000e+00 2.4603328301395004e+02 2.9052043674097831e+02 2.8905345919638789e+03 1 -1 0
11368 70 15 0.0000000000000000e+00 2.4904284535477757e+02 2.9341632937205213e+02 2.8886094414369186e+03 1 -1 0
11371 70 12 0.0000000000000000e+00 2.5606348267898039e+02 2.9593899848422905e+02 2.8925172370730943e+03 1 -1 0
11369 70 9 0.0000000000000000e+00 2.5136014978990252e+02 2.9532510839856320e+02 2.8869286228074820e+03 1 -1 0
11370 70 2 0.0000000000000000e+00 2.5299962024711655e+02 2.9507634073349482e+02 2.8905589981592520e+03 1 -1 0
11914 74 2 0.0000000000000000e+00 2.5803812825156689e+02 2.9098534165650574e+02 2.9006422539956234e+03 0 -2 0
11366 70 15 0.0000000000000000e+00 2.4381449217522248e+02 2.9279946379208695e+02 2.8916894442297089e+03 1 -1 0
12037 74 2 0.0000000000000000e+00 2.5000796108636095e+02 3.0649557384695242e+02 2.8869970825211003e+03 0 -2 0
11913 74 9 0.0000000000000000e+00 2.5666480734707397e+02 2.9174032289157878e+02 2.9046354798020029e+03 0 -2 0
11372 70 18 0.0000000000000000e+00 2.5872046941218809e+02 2.9686252082414080e+02 2.8948102352416431e+03 1 -1 0
12038 74 12 0.0000000000000000e+00 2.5229343315049221e+02 3.0936044445600987e+02 2.8883801459154324e+03 0 -2 0
12039 74 12 0.0000000000000000e+00 2.5501818959146908e+02 3.0956879638235318e+02 2.8904940664007504e+03 0 -2 0
11365 70 12 0.0000000000000000e+00 2.4226147927617490e+02 2.9371288807621966e+02 2.8878280819908755e+03 1 -1 0
12034 74 15 0.0000000000000000e+00 2.4436959344890914e+02 3.1031444181243774e+02 2.8870610921497560e+03 0 -2 0
11364 70 15 0.0000000000000000e+00 2.4133772271567747e+02 2.9745023136842235e+02 2.8874560692070022e+03 1 -1 0
1554 10 15 0.0000000000000000e+00 2.5877850334593057e+02 2.9228053655854205e+02 2.8877982202397002e+03 0 -1 -1
12035 74 9 0.0000000000000000e+00 2.4466423868572014e+02 3.0656253349493852e+02 2.8888855602080184e+03 0 -2 0
4831 30 18 0.0000000000000000e+00 2.4038205057766805e+02 3.0221720762090536e+02 2.9049473588065966e+03 0 0 -1
1549 10 2 0.0000000000000000e+00 2.5591068675253521e+02 3.0138761506987919e+02 2.8864071596816102e+03 0 -1 -1
11939 74 2 0.0000000000000000e+00 2.6785882992981743e+02 2.9742699355835180e+02 2.8856371122713349e+03 0 -2 0
1576 10 4 0.0000000000000000e+00 2.8051367613281076e+02 2.9664159795233775e+02 2.8917027379167207e+03 0 -1 -1
11375 70 2 0.0000000000000000e+00 2.6423893826106371e+02 2.9533741431964575e+02 2.8990406084342944e+03 1 -1 0
11373 70 12 0.0000000000000000e+00 2.6202739895176660e+02 2.9894089129822373e+02 2.8937870643565716e+03 1 -1 0
11943 74 15 0.0000000000000000e+00 2.6579572899138680e+02 3.0682688228548307e+02 2.8857866927112350e+03 0 -2 0
11374 70 15 0.0000000000000000e+00 2.6469398232620421e+02 2.9590465741376136e+02 2.8953170159594315e+03 1 -1 0
1584 10 15 0.0000000000000000e+00 2.7188887958382651e+02 2.9548845889361337e+02 2.8885516225958195e+03 0 -1 -1
11376 70 15 0.0000000000000000e+00 2.6648741989235378e+02 2.9851201724311375e+02 2.8998227472263002e+03 1 -1 0
1586 10 15 0.0000000000000000e+00 2.7088546619779191e+02 2.9625544016042022e+02 2.8953548563602144e+03 0 -1 -1
11378 70 15 0.0000000000000000e+00 2.6797708298599724e+02 3.0309794943031909e+02 2.9041254799855928e+03 1 -1 0
1585 10 12 0.0000000000000000e+00 2.7069484183689940e+02 2.9760138384475567e+02 2.8912397701833015e+03 0 -1 -1
11377 70 9 0.0000000000000000e+00 2.6837309246893619e+02 3.0014467202951857e+02 2.9019629411493647e+03 1 -1 0
1587 10 15 0.0000000000000000e+00 2.6993520759365089e+02 2.9328418285515181e+02 2.8980898288229660e+03 0 -1 -1
11385 70 2 0.0000000000000000e+00 2.7995885029409254e+02 3.0833808845234898e+02 2.9026180290951570e+03 1 -1 0
11386 70 12 0.0000000000000000e+00 2.7656988414206819e+02 3.0996422531406756e+02 2.9045283338677627e+03 1 -1 0
1588 10 15 0.0000000000000000e+00 2.7108535835600804e+02 2.9240207371888675e+02 2.9012194294106971e+03 0 -1 -1
1589 10 9 0.0000000000000000e+00 2.7379550112397703e+02 2.9307401764431597e+02 2.9027327698848658e+03 0 -1 -1
11940 74 9 0.0000000000000000e+00 2.6483840164500998e+02 2.9886001590191074e+02 2.8878568335004211e+03 0 -2 0
1578 10 2 0.0000000000000000e+00 2.7543064259669882e+02 3.0166138460581601e+02 2.8896461110803348e+03 0 -1 -1
8431 52 12 0.0000000000000000e+00 2.8018073919578825e+02 3.0684951777429387e+02 2.8955217807007134e+03 0 -1 -1
12053 74 2 0.0000000000000000e+00 2.7230003953659087e+02 3.1124173334014779e+02 2.8988553739797412e+03 0 -2 0
11941 74 15 0.0000000000000000e+00 2.6521204422780909e+02 3.0228993069998899e+02 2.8882337599322045e+03 0 -2 0
12050 74 18 0.0000000000000000e+00 2.6215482657348338e+02 3.0999641801704615e+02 2.8998689977509575e+03 0 -2 0
11942 74 12 0.0000000000000000e+00 2.6760496712424151e+02 3.0534267641764723e+02 2.8883233046524874e+03 0 -2 0
1591 10 12 0.0000000000000000e+00 2.7710005860355915e+02 2.9900345685696323e+02 2.9025849096381189e+03 0 -1 -1
1579 10 15 0.0000000000000000e+00 2.7756676617367560e+02 3.0146912297724452e+02 2.8861002829241042e+03 0 -1 -1
1577 10 15 0.0000000000000000e+00 2.7858668429945902e+02 2.9985647121280874e+02 2.8913428942233127e+03 0 -1 -1
1575 10 15 0.0000000000000000e+00 2.8064606264305860e+02 2.9327548619966535e+02 2.8895214962835607e+03 0 -1 -1
1583 10 15 0.0000000000000000e+00 2.7328161284381497e+02 2.9381979377529387e+02 2.8852381476166365e+03 0 -1 -1
1590 10 2 0.0000000000000000e+00 2.7358100454067687e+02 2.9693468406910301e+02 2.9028618223150215e+03 0 -1 -1
12051 74 18 0.0000000000000000e+00 2.6608434211473769e+02 3.0902471604676805e+02 2.8981599404369194e+03 0 -2 0
12052 74 12 0.0000000000000000e+00 2.6975386735249094e+02 3.0864996269268022e+02 2.8966156823173978e+03 0 -2 0
11937 74 9 0.0000000000000000e+00 2.6612546454923375e+02 2.9172549556304693e+02 2.8847507039165780e+03 0 -2 0
1574 10 15 0.0000000000000000e+00 2.7899986871781243e+02 2.9098126997032557e+02 2.8872581583852825e+03 0 -1 -1
11387 70 12 0.0000000000000000e+00 2.7314952200281010e+02 3.0995183449421995e+02 2.9040162788042603e+03 1 -1 0
8432 52 15 0.0000000000000000e+00 2.8221114828113355e+02 3.0918763524021779e+02 2.8981922840480515e+03 0 -1 -1
8430 52 15 0.0000000000000000e+00 2.8237603286625830e+02 3.0437764366854606e+02 2.8947262678147827e+03 0 -1 -1
11384 70 2 0.0000000000000000e+00 2.8250830897144476e+02 3.0668982828592812e+02 2.9049567607966555e+03 1 -1 0
7654 47 2 0.0000000000000000e+00 2.8791934150418399e+02 3.0408775345783909e+02 2.8885198747397162e+03 -1 0 -1