LAMMPS data file via write_data, version 2 Jun 2020, timestep = 50000

13040 atoms
40 atom types
12960 bonds
1 bond types

2.4000000000000000e+02 4.0160000000000002e+02 xlo xhi
2.4800000000000000e+02 4.0960000000000002e+02 ylo yhi
2.8840000000000000e+03 3.0455999999999999e+03 zlo zhi

Masses

1 131.2
2 57.05
3 128.2
4 101.1
5 156.2
6 71.08
7 115.1
8 129.1
9 163.2
10 99.07
11 113.2
12 128.1
13 186.2
14 147.2
15 87.08
16 137.1
17 114.1
18 97.12
19 103.1
20 113.2
21 131.2
22 57.05
23 128.2
24 101.1
25 156.2
26 71.08
27 115.1
28 129.1
29 163.2
30 99.07
31 113.2
32 128.1
33 186.2
34 147.2
35 87.08
36 137.1
37 114.1
38 97.12
39 103.1
40 113.2

Bond Coeffs # harmonic

1 2.39 3.81

Atoms # full

11248 70 1 0.0000000000000000e+00 2.5605058412486642e+02 2.5536537687688937e+02 2.8924266854462380e+03 1 -1 0
11325 70 4 0.0000000000000000e+00 2.4632963801892083e+02 2.5279558250032269e+02 2.8901324807687147e+03 1 -1 0
11324 70 15 0.0000000000000000e+00 2.4677244082323062e+02 2.5563867172342279e+02 2.8925553837232824e+03 1 -1 0
11326 70 2 0.0000000000000000e+00 2.4630117770656452e+02 2.5526104956524802e+02 2.8877667231553423e+03 1 -1 0
11328 70 9 0.0000000000000000e+00 2.4111138564863231e+02 2.6009740657144528e+02 2.8910953791075030e+03 1 -1 0
11327 70 2 0.0000000000000000e+00 2.4331999117753409e+02 2.5796154200246701e+02 2.8881272706639111e+03 1 -1 0
5720 36 2 0.0000000000000000e+00 2.4501136277149388e+02 2.6030239855484820e+02 2.8843270249993739e+03 0 -1 -1
11249 70 6 0.0000000000000000e+00 2.5517830209050689e+02 2.5235449571687735e+02 2.8949802597444564e+03 1 -1 0
11320 70 12 0.0000000000000000e+00 2.4579260517863338e+02 2.5866233531653097e+02 2.9012510254717458e+03 1 -1 0
11321 70 2 0.0000000000000000e+00 2.4759266394431040e+02 2.6052145760931114e+02 2.8987050835071773e+03 1 -1 0
11323 70 2 0.0000000000000000e+00 2.5034074503851969e+02 2.5560181825719064e+02 2.8941324351793069e+03 1 -1 0
11250 70 15 0.0000000000000000e+00 2.5807049817697612e+02 2.5153943927409526e+02 2.8972114455781843e+03 1 -1 0
11322 70 9 0.0000000000000000e+00 2.5036870004619732e+02 2.5796208573717769e+02 2.8971340134886218e+03 1 -1 0
11280 70 9 0.0000000000000000e+00 2.4143316049635916e+02 2.5370377474770021e+02 2.9010081605661476e+03 1 -1 0
11279 70 18 0.0000000000000000e+00 2.4125447442470391e+02 2.5063773901776437e+02 2.9023238973065477e+03 1 -1 0
10325 64 15 0.0000000000000000e+00 2.5428273194884972e+02 2.6055396137684761e+02 2.8844267229088136e+03 -1 -1 0
10327 64 9 0.0000000000000000e+00 2.5856989060205035e+02 2.5498557363571345e+02 2.8856758872398859e+03 -1 -1 0
10326 64 15 0.0000000000000000e+00 2.5682685246219501e+02 2.5823633313062572e+02 2.8856722955440596e+03 -1 -1 0
11266 70 4 0.0000000000000000e+00 2.5085079514086698e+02 2.4892841756175551e+02 2.8992749281331917e+03 1 -1 0
2812 18 9 0.0000000000000000e+00 2.5368859736159675e+02 2.6109012019673537e+02 2.9031996839105659e+03 0 -1 -1
5722 36 9 0.0000000000000000e+00 2.4464987231427969e+02 2.6709975017056064e+02 2.8852108930538284e+03 0 -1 -1
2810 18 15 0.0000000000000000e+00 2.5820362325008387e+02 2.6177218192402955e+02 2.8995830553805349e+03 0 -1 -1
2809 18 9 0.0000000000000000e+00 2.5865852025881213e+02 2.5820255009535168e+02 2.8980426260830845e+03 0 -1 -1
2811 18 2 0.0000000000000000e+00 2.5710835964045339e+02 2.6321338116718312e+02 2.9029865469228757e+03 0 -1 -1
5721 36 6 0.0000000000000000e+00 2.4530227312203709e+02 2.6374974410535475e+02 2.8859189558296048e+03 0 -1 -1
11255 70 12 0.0000000000000000e+00 2.5100180316367027e+02 2.4925475392542026e+02 2.8864731661947399e+03 1 -1 0
11253 70 9 0.0000000000000000e+00 2.5775374810294863e+02 2.4872059338326960e+02 2.8896461712409177e+03 1 -1 0
11254 70 4 0.0000000000000000e+00 2.5428771126915419e+02 2.5093270777876225e+02 2.8886320442252768e+03 1 -1 0
11260 70 15 0.0000000000000000e+00 2.4177775814706729e+02 2.4809403532160405e+02 2.8846922053618882e+03 1 -1 0
11278 70 12 0.0000000000000000e+00 2.4213056722936489e+02 2.4805383703491754e+02 2.8989351661937840e+03 1 -1 0
3641 23 9 0.0000000000000000e+00 2.6500065062333067e+02 2.5608247140360544e+02 2.8937029904706737e+03 0 0 -1
3645 23 2 0.0000000000000000e+00 2.5987468625996053e+02 2.6656635491389454e+02 2.8942519765096836e+03 0 0 -1
11251 70 17 0.0000000000000000e+00 2.6086497693802232e+02 2.4983862267580099e+02 2.8957359781684195e+03 1 -1 0
3610 23 2 0.0000000000000000e+00 2.7244452248019081e+02 2.5893258338771824e+02 2.8956959779444778e+03 0 0 -1
3642 23 15 0.0000000000000000e+00 2.6374741811456147e+02 2.5947163773473147e+02 2.8915300358296718e+03 0 0 -1
3643 23 15 0.0000000000000000e+00 2.6073758099533040e+02 2.6080315887055360e+02 2.8893128731681936e+03 0 0 -1
3640 23 15 0.0000000000000000e+00 2.6679021521604659e+02 2.5515065089764860e+02 2.8969060081157381e+03 0 0 -1
3644 23 9 0.0000000000000000e+00 2.6084405356548166e+02 2.6470861826254765e+02 2.8906668685422205e+03 0 0 -1
3639 23 15 0.0000000000000000e+00 2.6759252645589811e+02 2.5236341831555467e+02 2.8993674420237494e+03 0 0 -1
3608 23 2 0.0000000000000000e+00 2.6743085732651070e+02 2.5920614758039108e+02 2.9012690193178182e+03 0 0 -1
3607 23 18 0.0000000000000000e+00 2.7026442334741580e+02 2.5803656948459127e+02 2.9036121350487983e+03 0 0 -1
3609 23 12 0.0000000000000000e+00 2.6945250986315136e+02 2.6051861912610940e+02 2.8982639735750736e+03 0 0 -1
3606 23 12 0.0000000000000000e+00 2.7324936700746196e+02 2.6095901479004442e+02 2.9035041773868265e+03 0 0 -1
3611 23 9 0.0000000000000000e+00 2.7574919410045698e+02 2.5752140461733552e+02 2.8948245607032509e+03 0 0 -1
8369 52 15 0.0000000000000000e+00 2.7939822825914405e+02 2.6742467344067143e+02 2.9022545676412692e+03 0 -1 -1
7454 46 15 0.0000000000000000e+00 2.7628737343945158e+02 2.5255547919351366e+02 2.9031108480747803e+03 -1 -1 -1
7453 46 12 0.0000000000000000e+00 2.7728236160293784e+02 2.5642049317393349e+02 2.9025195903093872e+03 -1 -1 -1
3612 23 15 0.0000000000000000e+00 2.7867623529271100e+02 2.5754203986856390e+02 2.8974123957316951e+03 0 0 -1
11252 70 7 -1.0000000000000000e+00 2.6047797097710725e+02 2.4875009734907084e+02 2.8926762322658265e+03 1 -1 0
8368 52 9 0.0000000000000000e+00 2.7622146030984050e+02 2.6590415844563967e+02 2.9005776467374490e+03 0 -1 -1
8366 52 15 0.0000000000000000e+00 2.7036657986274656e+02 2.6714373555531540e+02 2.8983733086022262e+03 0 -1 -1
8367 52 15 0.0000000000000000e+00 2.7279923496291838e+02 2.6553286345506075e+02 2.9000932582174787e+03 0 -1 -1
2808 18 15 0.0000000000000000e+00 2.6088780418205658e+02 2.5637020659179404e+02 2.9010814579336402e+03 0 -1 -1
2807 18 12 0.0000000000000000e+00 2.6089240510969705e+02 2.5236948225495621e+02 2.9028324141557523e+03 0 -1 -1
10328 64 2 0.0000000000000000e+00 2.6134067975649475e+02 2.5705667007966679e+02 2.8840655846854602e+03 -1 -1 0
10329 64 12 0.0000000000000000e+00 2.6378459374295232e+02 2.5925894470250307e+02 2.8848307438856828e+03 -1 -1 0
3638 23 12 0.0000000000000000e+00 2.7105565335719893e+02 2.5085539818574370e+02 2.8988438981476670e+03 0 0 -1
7455 46 15 0.0000000000000000e+00 2.8033142329144528e+02 2.5134666004435573e+02 2.9019443419020222e+03 -1 -1 -1
3626 23 2 0.0000000000000000e+00 2.8123542658673102e+02 2.5353729364900133e+02 2.8885552797044088e+03 0 0 -1
3616 23 15 0.0000000000000000e+00 2.8900105401330325e+02 2.5979759311643005e+02 2.8917099000629291e+03 0 0 -1
7448 46 9 0.0000000000000000e+00 2.8945005366654425e+02 2.5484684767009531e+02 2.9018598077819556e+03 -1 -1 -1
2537 16 2 0.0000000000000000e+00 2.9465471684543888e+02 2.6396367711197678e+02 2.8917678910575291e+03 -1 -1 -1
3614 23 12 0.0000000000000000e+00 2.8364846357776855e+02 2.6249965079878115e+02 2.8959645959680297e+03 0 0 -1
3613 23 12 0.0000000000000000e+00 2.8113886378996824e+02 2.6018250699630528e+02 2.8968000211459962e+03 0 0 -1
3615 23 15 0.0000000000000000e+00 2.8641581924156458e+02 2.6157338444425466e+02 2.8935937249758158e+03 0 0 -1
3617 23 12 0.0000000000000000e+00 2.9218735396900479e+02 2.5851112949593312e+02 2.8896219546595944e+03 0 0 -1
3618 23 18 0.0000000000000000e+00 2.9245211605679242e+02 2.6066993971388035e+02 2.8861369409700542e+03 0 0 -1
2536 16 9 0.0000000000000000e+00 2.9181929774321986e+02 2.6639546153424197e+02 2.8919176860626030e+03 -1 -1 -1
7443 46 15 0.0000000000000000e+00 2.9378702196084907e+02 2.5862566429789968e+02 2.9036969400832659e+03 -1 -1 -1
3619 23 9 0.0000000000000000e+00 2.9035379782787447e+02 2.6332222441261740e+02 2.8856976033336937e+03 0 0 -1
2538 16 12 0.0000000000000000e+00 2.9850493134971259e+02 2.6432604312678819e+02 2.8910206310528924e+03 -1 -1 -1
3629 23 12 0.0000000000000000e+00 2.7985198345236597e+02 2.4841412965111289e+02 2.8871163697941856e+03 0 0 -1
2540 16 15 0.0000000000000000e+00 2.9803065626543810e+02 2.5959737054739543e+02 2.8960687801845284e+03 -1 -1 -1
3621 23 12 0.0000000000000000e+00 2.8407396573606275e+02 2.6445658638029664e+02 2.8896821036248011e+03 0 0 -1
2499 16 15 0.0000000000000000e+00 2.9013142428854565e+02 2.4956648557567544e+02 2.8867127156199485e+03 -1 -1 -1
2498 16 15 0.0000000000000000e+00 2.9386512847189033e+02 2.5219964207369017e+02 2.8872974833093081e+03 -1 -1 -1
7450 46 15 0.0000000000000000e+00 2.8399748885471104e+02 2.5521107717933458e+02 2.9015373452501008e+03 -1 -1 -1
7441 46 18 0.0000000000000000e+00 2.9202841779022583e+02 2.6439738364673866e+02 2.8980153354185968e+03 -1 -1 -1
7442 46 15 0.0000000000000000e+00 2.9252442203310511e+02 2.6144144641780389e+02 2.9007283099962619e+03 -1 -1 -1
3627 23 9 0.0000000000000000e+00 2.8148122327286285e+02 2.5222089088098755e+02 2.8920773460619980e+03 0 0 -1
3623 23 15 0.0000000000000000e+00 2.8588597620614723e+02 2.5879123534942045e+02 2.8846391532160342e+03 0 0 -1
3622 23 12 0.0000000000000000e+00 2.8268438144875006e+02 2.6131101016867416e+02 2.8864607923669860e+03 0 0 -1
2521 16 2 0.0000000000000000e+00 2.7977315511363599e+02 2.6696882131709970e+02 2.8852626706059968e+03 -1 -1 -1
3624 23 9 0.0000000000000000e+00 2.8687329745602210e+02 2.5568125347606127e+02 2.8869763544953312e+03 0 0 -1
3620 23 2 0.0000000000000000e+00 2.8731762733087010e+02 2.6290843444525865e+02 2.8879647439991463e+03 0 0 -1
3625 23 15 0.0000000000000000e+00 2.8357865741684520e+02 2.5542307517065782e+02 2.8875348962574640e+03 0 0 -1
2497 16 12 0.0000000000000000e+00 2.9733368973740733e+02 2.5321456305315317e+02 2.8857833787771651e+03 -1 -1 -1
3628 23 15 0.0000000000000000e+00 2.8071839793071456e+02 2.4824099233570897e+02 2.8906120450021326e+03 0 0 -1
2561 16 15 0.0000000000000000e+00 3.1603529795508439e+02 2.6647665070665425e+02 2.8935739904131187e+03 -1 -1 -1
2539 16 12 0.0000000000000000e+00 2.9991496725481522e+02 2.6277806418964360e+02 2.8944236768613541e+03 -1 -1 -1
10376 64 15 0.0000000000000000e+00 3.0837592617780228e+02 2.6068092467309373e+02 2.8926911655114068e+03 -1 -1 0
10374 64 6 0.0000000000000000e+00 3.0724915782366293e+02 2.6417213309203180e+02 2.8881650714592379e+03 -1 -1 0
10375 64 18 0.0000000000000000e+00 3.1061295140444781e+02 2.6261871892183217e+02 2.8897098869751094e+03 -1 -1 0
10373 64 18 0.0000000000000000e+00 3.0370572476959774e+02 2.6638390125865453e+02 2.8871341412873335e+03 -1 -1 0
2493 16 15 0.0000000000000000e+00 3.0649599315147850e+02 2.4946331538155349e+02 2.8930664506046382e+03 -1 -1 -1
2566 16 15 0.0000000000000000e+00 3.1163617536818617e+02 2.5794573902274374e+02 2.8961667987149135e+03 -1 -1 -1
2565 16 15 0.0000000000000000e+00 3.1553921992048424e+02 2.5795571436518804e+02 2.8962006250706822e+03 -1 -1 -1
2564 16 15 0.0000000000000000e+00 3.1467738299197617e+02 2.5793535386041953e+02 2.8924873681328904e+03 -1 -1 -1
2567 16 9 0.0000000000000000e+00 3.1066326270937350e+02 2.5675967704287422e+02 2.8999114317026128e+03 -1 -1 -1
2568 16 2 0.0000000000000000e+00 3.1130346611071320e+02 2.5598658335212610e+02 2.9030133688785245e+03 -1 -1 -1
2541 16 15 0.0000000000000000e+00 2.9979253199356287e+02 2.6079776937812642e+02 2.8991864067879656e+03 -1 -1 -1
2542 16 9 0.0000000000000000e+00 3.0301653271425334e+02 2.5837473372841913e+02 2.8984230146743630e+03 -1 -1 -1
2562 16 15 0.0000000000000000e+00 3.1617864462715795e+02 2.6289166312660558e+02 2.8925491403087253e+03 -1 -1 -1
2543 16 18 0.0000000000000000e+00 3.0599304883193793e+02 2.6022677729944240e+02 2.8982101869840394e+03 -1 -1 -1
2544 16 2 0.0000000000000000e+00 3.0550528455761923e+02 2.6393393419021788e+02 2.8996705944282144e+03 -1 -1 -1
10377 64 15 0.0000000000000000e+00 3.0859606031878468e+02 2.5732329592053213e+02 2.8922380190720460e+03 -1 -1 0
8142 50 9 0.0000000000000000e+00 3.1564568173911869e+02 2.5249345812379417e+02 2.8881369601791744e+03 -1 -1 -1
2545 16 9 0.0000000000000000e+00 3.0532194221253440e+02 2.6754555373764794e+02 2.8976343852271866e+03 -1 -1 -1
2563 16 12 0.0000000000000000e+00 3.1755340946361275e+02 2.6029845271961972e+02 2.8915464983032371e+03 -1 -1 -1
10379 64 15 0.0000000000000000e+00 3.0654824149402918e+02 2.5399252799262160e+02 2.8867796442363688e+03 -1 -1 0
10369 64 9 0.0000000000000000e+00 3.0113068554913355e+02 2.5828514991098768e+02 2.8851510308115026e+03 -1 -1 0
7559 47 15 0.0000000000000000e+00 3.1579879702876190e+02 2.5412917864053986e+02 2.9034325251759269e+03 -1 0 -1
2494 16 2 0.0000000000000000e+00 3.0226666792996627e+02 2.4919076924255023e+02 2.8922083157288471e+03 -1 -1 -1
8141 50 2 0.0000000000000000e+00 3.1453363155932107e+02 2.4945262830170327e+02 2.8857211264126709e+03 -1 -1 -1
10372 64 12 0.0000000000000000e+00 3.0114648234650770e+02 2.6542747197585248e+02 2.8847474824199799e+03 -1 -1 0
8143 50 2 0.0000000000000000e+00 3.1842116160671583e+02 2.5491634636855619e+02 2.8903096127868166e+03 -1 -1 -1
10380 64 2 0.0000000000000000e+00 3.0581248812861770e+02 2.5082667248761837e+02 2.8856598165965488e+03 -1 -1 0
10378 64 4 0.0000000000000000e+00 3.0684172620422657e+02 2.5676849800237409e+02 2.8886693438523712e+03 -1 -1 0
2496 16 2 0.0000000000000000e+00 3.0003032511330503e+02 2.5141989282914989e+02 2.8877992862215287e+03 -1 -1 -1
10364 64 15 0.0000000000000000e+00 3.1491035872280997e+02 2.6219485302218629e+02 2.8854245562010374e+03 -1 -1 0
10363 64 12 0.0000000000000000e+00 3.1563873699363796e+02 2.6617978418750454e+02 2.8845384806734637e+03 -1 -1 0
3647 23 15 0.0000000000000000e+00 2.5955260645148496e+02 2.7304527299825639e+02 2.8972087381870933e+03 0 0 -1
3646 23 12 0.0000000000000000e+00 2.5897854507925729e+02 2.7044382395461258e+02 2.8945006988680002e+03 0 0 -1
2736 17 2 0.0000000000000000e+00 2.5074747079699341e+02 2.8323362060504274e+02 2.8961801261508317e+03 -1 0 -1
3649 23 17 0.0000000000000000e+00 2.5759463919653581e+02 2.7693282027337528e+02 2.8949390879247244e+03 0 0 -1
3653 23 2 0.0000000000000000e+00 2.4464084725557109e+02 2.7672402372750582e+02 2.8909004638871525e+03 0 0 -1
3655 23 12 0.0000000000000000e+00 2.4534555715788372e+02 2.8245003561338609e+02 2.8906632482941841e+03 0 0 -1
3652 23 9 0.0000000000000000e+00 2.4790074036164336e+02 2.7443272095831804e+02 2.8912070122076643e+03 0 0 -1
3654 23 4 0.0000000000000000e+00 2.4633012398065267e+02 2.7922816750439802e+02 2.8884695844648118e+03 0 0 -1
3656 23 15 0.0000000000000000e+00 2.4706182201464762e+02 2.8512979679357875e+02 2.8879570412634639e+03 0 0 -1
2833 18 12 0.0000000000000000e+00 2.4069603610314476e+02 2.6914606171846259e+02 2.9035894745258597e+03 0 -1 -1
3650 23 4 0.0000000000000000e+00 2.5413254982748302e+02 2.7593644873570599e+02 2.8944664915249009e+03 0 0 -1
3651 23 2 0.0000000000000000e+00 2.5053876073453409e+02 2.7713796018653221e+02 2.8929089875177983e+03 0 0 -1
2738 17 9 0.0000000000000000e+00 2.5363347798089873e+02 2.8657351362982530e+02 2.8920867747205125e+03 -1 0 -1
11963 74 4 0.0000000000000000e+00 2.5982908188738452e+02 2.8691621430690236e+02 2.9014897612313289e+03 0 -2 0
2834 18 17 0.0000000000000000e+00 2.4137898689925419e+02 2.7312837801540104e+02 2.9035785238994504e+03 0 -1 -1
2737 17 15 0.0000000000000000e+00 2.5321731611156943e+02 2.8636138149039283e+02 2.8968587805019415e+03 -1 0 -1
3648 23 12 0.0000000000000000e+00 2.5937006204761224e+02 2.7659862132761981e+02 2.8988592703090985e+03 0 0 -1
1571 10 18 0.0000000000000000e+00 2.4013605729062854e+02 2.8061683360415407e+02 2.9001194054404154e+03 0 -1 -1
1570 10 12 0.0000000000000000e+00 2.4129479204922737e+02 2.8237100827119485e+02 2.8971097786605928e+03 0 -1 -1
2735 17 15 0.0000000000000000e+00 2.4802709035132821e+02 2.8517356914755715e+02 2.8984486581829456e+03 -1 0 -1
3660 23 2 0.0000000000000000e+00 2.4071817662346754e+02 2.8476618319201566e+02 2.8846755170687629e+03 0 0 -1
1569 10 12 0.0000000000000000e+00 2.4074922238987133e+02 2.8510564634249329e+02 2.8944107569062098e+03 0 -1 -1
5723 36 18 0.0000000000000000e+00 2.4309380304076151e+02 2.7121744049919801e+02 2.8859493128220934e+03 0 -1 -1
1572 10 6 0.0000000000000000e+00 2.4026820304167782e+02 2.8333190585647094e+02 2.9035701406052312e+03 0 -1 -1
11962 74 17 0.0000000000000000e+00 2.6076499757111299e+02 2.8338584114262483e+02 2.9028432318480031e+03 0 -2 0
8364 52 2 0.0000000000000000e+00 2.6677741207908878e+02 2.7341461045846336e+02 2.8986476115033433e+03 0 -1 -1
8365 52 12 0.0000000000000000e+00 2.6856240890046138e+02 2.7043353515217012e+02 2.8978537550467659e+03 0 -1 -1
8362 52 2 0.0000000000000000e+00 2.6445020337047777e+02 2.7955473684502823e+02 2.8969087283342174e+03 0 -1 -1
8363 52 9 0.0000000000000000e+00 2.6534203361196194e+02 2.7576945658758899e+02 2.8955105001939846e+03 0 -1 -1
8361 52 15 0.0000000000000000e+00 2.6831818337198922e+02 2.7992395372796636e+02 2.8982901963914487e+03 0 -1 -1
266 2 12 0.0000000000000000e+00 2.7822267869707809e+02 2.8319814847221375e+02 2.8982672369229454e+03 -1 -2 -1
267 2 18 0.0000000000000000e+00 2.7854806546703810e+02 2.8469728817190986e+02 2.9022876463802513e+03 -1 -2 -1
8359 52 7 -1.0000000000000000e+00 2.7216683085536647e+02 2.8354689816358615e+02 2.8968230387029762e+03 0 -1 -1
8360 52 4 0.0000000000000000e+00 2.7236526555316323e+02 2.7986113778146591e+02 2.8986381818574300e+03 0 -1 -1
8358 52 4 0.0000000000000000e+00 2.7228702136804691e+02 2.8565876337093624e+02 2.8939398349317271e+03 0 -1 -1
8370 52 15 0.0000000000000000e+00 2.8309077045954132e+02 2.6774222522311624e+02 2.9022051422484351e+03 0 -1 -1
269 2 18 0.0000000000000000e+00 2.8448720175973017e+02 2.8654961358640867e+02 2.9029895575196374e+03 -1 -2 -1
2535 16 15 0.0000000000000000e+00 2.9449844330116923e+02 2.6802258491862790e+02 2.8895069377276782e+03 -1 -1 -1
2534 16 15 0.0000000000000000e+00 2.9558674012965230e+02 2.6809757845256786e+02 2.8853252019289839e+03 -1 -1 -1
7438 46 12 0.0000000000000000e+00 2.8877455544522786e+02 2.7338342008020692e+02 2.8952458808900478e+03 -1 -1 -1
7437 46 12 0.0000000000000000e+00 2.8594017759977783e+02 2.7164599428647796e+02 2.8968957402342762e+03 -1 -1 -1
7439 46 18 0.0000000000000000e+00 2.9194682336219057e+02 2.7086006975658881e+02 2.8966230370521857e+03 -1 -1 -1
7440 46 6 0.0000000000000000e+00 2.9221396753151339e+02 2.6815191842108936e+02 2.8995249473441386e+03 -1 -1 -1
2527 16 2 0.0000000000000000e+00 2.8938386289459925e+02 2.7941494080576291e+02 2.8894966643896096e+03 -1 -1 -1
2530 16 12 0.0000000000000000e+00 2.9808162401386448e+02 2.7633913347829809e+02 2.8909812244813320e+03 -1 -1 -1
2532 16 15 0.0000000000000000e+00 2.9765408866264738e+02 2.7396225924326137e+02 2.8862586003082470e+03 -1 -1 -1
2526 16 9 0.0000000000000000e+00 2.8885974086752981e+02 2.7872581093880200e+02 2.8857700178033592e+03 -1 -1 -1
2528 16 15 0.0000000000000000e+00 2.9282220921619557e+02 2.7589227151093456e+02 2.8898727601557052e+03 -1 -1 -1
259 2 15 0.0000000000000000e+00 2.8974962390516794e+02 2.7761582498402595e+02 2.9036516969683626e+03 -1 -2 -1
260 2 9 0.0000000000000000e+00 2.8744833303736061e+02 2.8006097873165237e+02 2.9027084156255696e+03 -1 -2 -1
2529 16 15 0.0000000000000000e+00 2.9461020447986209e+02 2.7886710318103070e+02 2.8912099774926360e+03 -1 -1 -1
254 2 9 0.0000000000000000e+00 2.9721175492515692e+02 2.8298370356607091e+02 2.9004902018811963e+03 -1 -2 -1
253 2 15 0.0000000000000000e+00 2.9910511617891848e+02 2.8433802471805018e+02 2.8974786323047406e+03 -1 -2 -1
2524 16 2 0.0000000000000000e+00 2.8795185476901202e+02 2.7294293491380523e+02 2.8868433542905486e+03 -1 -1 -1
7436 46 2 0.0000000000000000e+00 2.8705159011206410e+02 2.7201186629905197e+02 2.9008154269942870e+03 -1 -1 -1
7433 46 18 0.0000000000000000e+00 2.9487478749844524e+02 2.7085740334227893e+02 2.9023481649467258e+03 -1 -1 -1
255 2 2 0.0000000000000000e+00 2.9765714680173028e+02 2.8048890215844415e+02 2.9038189401223317e+03 -1 -2 -1
263 2 9 0.0000000000000000e+00 2.8173319135332054e+02 2.7811829675364226e+02 2.9013540193293693e+03 -1 -2 -1
264 2 2 0.0000000000000000e+00 2.8352893233172063e+02 2.8055619376199013e+02 2.8985289952292719e+03 -1 -2 -1
265 2 12 0.0000000000000000e+00 2.8154606243953049e+02 2.8444037879107623e+02 2.8977697586038121e+03 -1 -2 -1
7432 46 9 0.0000000000000000e+00 2.9812480916806317e+02 2.6839759369510045e+02 2.9032691073525243e+03 -1 -1 -1
276 2 9 0.0000000000000000e+00 2.9090138317712797e+02 2.8565586567425061e+02 2.9034277343810895e+03 -1 -2 -1
2523 16 4 0.0000000000000000e+00 2.8452923742517760e+02 2.7146121038374747e+02 2.8857872734357861e+03 -1 -1 -1
2522 16 15 0.0000000000000000e+00 2.8225892564513265e+02 2.6899270739802756e+02 2.8878861000367938e+03 -1 -1 -1
2525 16 2 0.0000000000000000e+00 2.8810946083166459e+02 2.7566408825264938e+02 2.8844346375573637e+03 -1 -1 -1
2531 16 15 0.0000000000000000e+00 2.9985942797876476e+02 2.7343179983177043e+02 2.8889022914623665e+03 -1 -1 -1
2553 16 15 0.0000000000000000e+00 3.1939525919093251e+02 2.8052729866338558e+02 2.9029167710526904e+03 -1 -1 -1
2546 16 2 0.0000000000000000e+00 3.0265340511230136e+02 2.6934866939000455e+02 2.9000870405884466e+03 -1 -1 -1
2547 16 12 0.0000000000000000e+00 3.0467507854241137e+02 2.7206824327735717e+02 2.9026888016883595e+03 -1 -1 -1
2548 16 12 0.0000000000000000e+00 3.0818465618521770e+02 2.7300577364993291e+02 2.9019856546632686e+03 -1 -1 -1
2549 16 18 0.0000000000000000e+00 3.1112668474553084e+02 2.7424792530211067e+02 2.8999835972790333e+03 -1 -1 -1
2560 16 15 0.0000000000000000e+00 3.1772058651986640e+02 2.6938739550036598e+02 2.8953136131847473e+03 -1 -1 -1
7844 49 12 0.0000000000000000e+00 3.0883984561446812e+02 2.8597388848210159e+02 2.8893182746708144e+03 0 0 -1
2559 16 2 0.0000000000000000e+00 3.1920224652281695e+02 2.7264934122670769e+02 2.8955588046612484e+03 -1 -1 -1
252 2 15 0.0000000000000000e+00 3.0118631120370992e+02 2.8660529965897916e+02 2.8999970166424450e+03 -1 -2 -1
2551 16 18 0.0000000000000000e+00 3.1604139970976712e+02 2.7514011035431372e+02 2.9029165024277813e+03 -1 -1 -1
2550 16 6 0.0000000000000000e+00 3.1389378538104256e+02 2.7291668539431322e+02 2.9013348446115815e+03 -1 -1 -1
2552 16 15 0.0000000000000000e+00 3.1599847050758513e+02 2.7921776538044202e+02 2.9020589057969219e+03 -1 -1 -1
7842 49 18 0.0000000000000000e+00 3.0394181130458117e+02 2.8698861839007998e+02 2.8847574134987740e+03 0 0 -1
11319 70 18 0.0000000000000000e+00 2.4717244523021208e+02 2.5666099176705029e+02 2.9043155202773896e+03 1 -1 0
2813 18 15 0.0000000000000000e+00 2.5204962370104980e+02 2.5974888393177065e+02 2.9064954533207770e+03 0 -1 -1
2827 18 15 0.0000000000000000e+00 2.4302176793651225e+02 2.6272762880087134e+02 2.9210155014090847e+03 0 -1 -1
2816 18 4 0.0000000000000000e+00 2.4476109165388914e+02 2.5816861365005724e+02 2.9128619001361699e+03 0 -1 -1
12236 76 4 0.0000000000000000e+00 2.5703062396708310e+02 2.4917693025343942e+02 2.9137681535358242e+03 0 0 0
12242 76 9 0.0000000000000000e+00 2.4640204193994580e+02 2.5116609716452894e+02 2.9127938835388486e+03 0 0 0
12237 76 12 0.0000000000000000e+00 2.5681405356351308e+02 2.5289656286232889e+02 2.9156149687489742e+03 0 0 0
12239 76 9 0.0000000000000000e+00 2.5149740473463331e+02 2.5010945014779014e+02 2.9190908716940812e+03 0 0 0
3593 23 4 0.0000000000000000e+00 2.5001039807651816e+02 2.6450567266044368e+02 2.9189565751166692e+03 0 0 -1
12240 76 2 0.0000000000000000e+00 2.4868708749784167e+02 2.5109078967550425e+02 2.9184554147397616e+03 0 0 0
3592 23 9 0.0000000000000000e+00 2.4899838082863454e+02 2.6241326250776109e+02 2.9215801070294619e+03 0 0 -1
2815 18 15 0.0000000000000000e+00 2.4830380758417755e+02 2.5772246379407716e+02 2.9119351847158555e+03 0 -1 -1
2817 18 7 -1.0000000000000000e+00 2.4470574417344477e+02 2.5675111892631543e+02 2.9163193096047735e+03 0 -1 -1
2819 18 15 0.0000000000000000e+00 2.4615328507543148e+02 2.5505996580033664e+02 2.9234561983006829e+03 0 -1 -1
2818 18 4 0.0000000000000000e+00 2.4692124474777023e+02 2.5666417333025959e+02 2.9194896372894791e+03 0 -1 -1
12238 76 15 0.0000000000000000e+00 2.5436540406233755e+02 2.5255159381251056e+02 2.9183896117851382e+03 0 0 0
2814 18 12 0.0000000000000000e+00 2.5040165029702396e+02 2.5730638218757804e+02 2.9089076321899374e+03 0 -1 -1
12241 76 6 0.0000000000000000e+00 2.4555932904563426e+02 2.5176429083810285e+02 2.9163950676793520e+03 0 0 0
12243 76 18 0.0000000000000000e+00 2.4885079175874645e+02 2.5190767806636379e+02 2.9107818691714579e+03 0 0 0
12244 76 4 0.0000000000000000e+00 2.4703966553049258e+02 2.4999238045240045e+02 2.9073590249775575e+03 0 0 0
3594 23 12 0.0000000000000000e+00 2.5326585059239284e+02 2.6379588458736515e+02 2.9164883106905559e+03 0 0 -1
11318 70 4 0.0000000000000000e+00 2.4390544985201828e+02 2.5549806050771164e+02 2.9062069996972191e+03 1 -1 0
11317 70 15 0.0000000000000000e+00 2.4018587165422989e+02 2.5670467014560552e+02 2.9054067319154215e+03 1 -1 0
3595 23 12 0.0000000000000000e+00 2.5576003140106403e+02 2.6498870248329467e+02 2.9190044856372970e+03 0 0 -1
11942 74 12 0.0000000000000000e+00 2.5721290676051285e+02 2.6614584922772440e+02 2.9119536727960349e+03 0 -2 0
11943 74 15 0.0000000000000000e+00 2.5508962056844163e+02 2.6519220300293364e+02 2.9095115027908032e+03 0 -2 0
11944 74 4 0.0000000000000000e+00 2.5170307563366572e+02 2.6705418509476181e+02 2.9095340333626614e+03 0 -2 0
2828 18 15 0.0000000000000000e+00 2.4508668124200619e+02 2.6268406909211461e+02 2.9172077237015151e+03 0 -1 -1
2829 18 9 0.0000000000000000e+00 2.4275000525854404e+02 2.6547524546337803e+02 2.9153401972487341e+03 0 -1 -1
11288 70 9 0.0000000000000000e+00 2.4021364742886706e+02 2.5077773755967505e+02 2.9105692187358718e+03 1 -1 0
3605 23 4 0.0000000000000000e+00 2.7143973302664699e+02 2.6334883843221519e+02 2.9058285127805202e+03 0 0 -1
3604 23 18 0.0000000000000000e+00 2.6833987307285099e+02 2.6350994853367428e+02 2.9080058459673050e+03 0 0 -1
7452 46 15 0.0000000000000000e+00 2.7870586873359878e+02 2.5632342631774281e+02 2.9058844229219822e+03 -1 -1 -1
3603 23 9 0.0000000000000000e+00 2.6525919395190965e+02 2.6591666784528621e+02 2.9085363615854635e+03 0 0 -1
5545 35 15 0.0000000000000000e+00 2.7250684568184727e+02 2.5325096358936921e+02 2.9121448860184018e+03 -1 1 -1
2803 18 18 0.0000000000000000e+00 2.6899029229274026e+02 2.5788528305988177e+02 2.9120984280056855e+03 0 -1 -1
2801 18 15 0.0000000000000000e+00 2.7650791317625169e+02 2.6048174184860170e+02 2.9137914028672212e+03 0 -1 -1
2800 18 15 0.0000000000000000e+00 2.7565199632209624e+02 2.6374077454113251e+02 2.9154874019423469e+03 0 -1 -1
2806 18 12 0.0000000000000000e+00 2.6296423425095566e+02 2.5367986967918847e+02 2.9062397641718153e+03 0 -1 -1
2804 18 9 0.0000000000000000e+00 2.6547536282085230e+02 2.5669969016335330e+02 2.9108528279054294e+03 0 -1 -1
2805 18 2 0.0000000000000000e+00 2.6651542371085247e+02 2.5580785743831544e+02 2.9071354366400942e+03 0 -1 -1
2802 18 12 0.0000000000000000e+00 2.7266971179140774e+02 2.5855006825773006e+02 2.9133302680920747e+03 0 -1 -1
5546 35 17 0.0000000000000000e+00 2.7532667258893855e+02 2.5191571414235543e+02 2.9146654980566464e+03 -1 1 -1
3597 23 4 0.0000000000000000e+00 2.6231123546677554e+02 2.6730824100162999e+02 2.9180494109113979e+03 0 0 -1
3600 23 9 0.0000000000000000e+00 2.6967898403034155e+02 2.6521745060547346e+02 2.9153493400516663e+03 0 0 -1
3599 23 15 0.0000000000000000e+00 2.6858230289866890e+02 2.6667074989088405e+02 2.9192044990108329e+03 0 0 -1
5543 35 1 0.0000000000000000e+00 2.7059698313042213e+02 2.5271548941391885e+02 2.9061486532464178e+03 -1 1 -1
5544 35 6 0.0000000000000000e+00 2.7110099338449515e+02 2.5095706608456135e+02 2.9093310039174912e+03 -1 1 -1
2799 18 12 0.0000000000000000e+00 2.7751740384023481e+02 2.6635502457207144e+02 2.9125276183943097e+03 0 -1 -1
3413 21 12 0.0000000000000000e+00 2.6280900891599413e+02 2.6277168506132091e+02 2.9234506280063192e+03 0 -1 -1
5547 35 7 -1.0000000000000000e+00 2.7429382269908581e+02 2.4878762917741574e+02 2.9167893797150173e+03 -1 1 -1
7449 46 2 0.0000000000000000e+00 2.8592289050694171e+02 2.5428427397914120e+02 2.9039564465874373e+03 -1 -1 -1
7444 46 4 0.0000000000000000e+00 2.9271230591448989e+02 2.6072613288544540e+02 2.9069367270072185e+03 -1 -1 -1
7445 46 15 0.0000000000000000e+00 2.9022761150572546e+02 2.5927243904510436e+02 2.9092236294842651e+03 -1 -1 -1
7447 46 15 0.0000000000000000e+00 2.9118057524795609e+02 2.5486004703188567e+02 2.9049785167323598e+03 -1 -1 -1
7446 46 2 0.0000000000000000e+00 2.8869663851238784e+02 2.5532915343042714e+02 2.9083067823985944e+03 -1 -1 -1
8371 52 9 0.0000000000000000e+00 2.8466685863026362e+02 2.6544153716677476e+02 2.9049343243587291e+03 0 -1 -1
7470 46 15 0.0000000000000000e+00 2.9809177352904999e+02 2.4830005695263890e+02 2.9174112078046546e+03 -1 -1 -1
7451 46 15 0.0000000000000000e+00 2.8204206966259699e+02 2.5714722563728594e+02 2.9046011276770573e+03 -1 -1 -1
8592 53 15 0.0000000000000000e+00 2.9937560988735572e+02 2.6047881659497153e+02 2.9061585753372569e+03 0 0 -1
8589 53 9 0.0000000000000000e+00 2.9328209944013042e+02 2.6522552159627327e+02 2.9106111969688095e+03 0 0 -1
8590 53 2 0.0000000000000000e+00 2.9728345254847977e+02 2.6547430229935202e+02 2.9116841087422672e+03 0 0 -1
8588 53 15 0.0000000000000000e+00 2.8983268392226034e+02 2.6347434001997397e+02 2.9128277044835950e+03 0 0 -1
8587 53 2 0.0000000000000000e+00 2.8694059084474918e+02 2.6444148443488905e+02 2.9156842245488947e+03 0 0 -1