LAMMPS data file via write_data, version 22 Aug 2018, timestep = 1020000

13040 atoms
41 atom types
12960 bonds
1 bond types

2.4000000000000000e+02 4.2650000000000000e+02 xlo xhi
2.4800000000000000e+02 4.3450000000000000e+02 ylo yhi
2.8840000000000000e+03 3.0705000000000000e+03 zlo zhi

Masses

1 131.2
2 57.05
3 128.2
4 101.1
5 156.2
6 71.08
7 115.1
8 129.1
9 163.2
10 99.07
11 113.2
12 128.1
13 186.2
14 147.2
15 87.08
16 137.1
17 114.1
18 97.12
19 103.1
20 113.2
21 131.2
22 57.05
23 128.2
24 101.1
25 156.2
26 71.08
27 115.1
28 129.1
29 163.2
30 99.07
31 113.2
32 128.1
33 186.2
34 147.2
35 87.08
36 137.1
37 114.1
38 97.12
39 103.1
40 113.2
41 113.2

Bond Coeffs # harmonic

1 2.39 3.81

Atoms # full

6454 40 9 0.0000000000000000e+00 2.5746421951880535e+02 2.6513553058453618e+02 2.8894525356046597e+03 0 -1 -1
6455 40 18 0.0000000000000000e+00 2.5869033134210866e+02 2.6755007690300204e+02 2.8922087841797138e+03 0 -1 -1
6498 40 12 0.0000000000000000e+00 2.6030776382158081e+02 2.5226603071157015e+02 2.8938682767761297e+03 0 -1 -1
2776 18 7 -1.0000000000000000e+00 2.4160270663234022e+02 2.7006522510847924e+02 2.9038369294444160e+03 0 -1 -1
6452 40 15 0.0000000000000000e+00 2.5828974588463524e+02 2.6121454512264108e+02 2.8845441191760565e+03 0 -1 -1
2777 18 9 0.0000000000000000e+00 2.4264365558343187e+02 2.6639962608279154e+02 2.9048277778881547e+03 0 -1 -1
6446 40 15 0.0000000000000000e+00 2.4205417569037050e+02 2.5824586373155103e+02 2.8844911214801873e+03 0 -1 -1
6453 40 15 0.0000000000000000e+00 2.5587157480513295e+02 2.6479345360227137e+02 2.8856743760733211e+03 0 -1 -1
6456 40 2 0.0000000000000000e+00 2.6104142069875292e+02 2.6835533083941147e+02 2.8954499035917306e+03 0 -1 -1
6495 40 2 0.0000000000000000e+00 2.6364651205238897e+02 2.5909722154208657e+02 2.8878494168735647e+03 0 -1 -1
6494 40 2 0.0000000000000000e+00 2.6565263540902851e+02 2.5798423874645187e+02 2.8849961902475852e+03 0 -1 -1
6499 40 15 0.0000000000000000e+00 2.6169200524482369e+02 2.4903983312190616e+02 2.8924660938078546e+03 0 -1 -1
6496 40 12 0.0000000000000000e+00 2.6572507506078608e+02 2.5658502585120362e+02 2.8905104307323013e+03 0 -1 -1
6497 40 12 0.0000000000000000e+00 2.6268310475267157e+02 2.5561786198740467e+02 2.8926693599171399e+03 0 -1 -1
6459 40 12 0.0000000000000000e+00 2.6372973047984010e+02 2.6950082315559570e+02 2.8875707553093839e+03 0 -1 -1
6458 40 2 0.0000000000000000e+00 2.6381974302979921e+02 2.6912423366738926e+02 2.8909729852416544e+03 0 -1 -1
7892 49 4 0.0000000000000000e+00 2.9241218904333715e+02 2.6846778654104770e+02 2.8958782146578546e+03 0 0 -1
8362 52 2 0.0000000000000000e+00 2.8769057541391390e+02 2.4811919471954550e+02 2.8910648047565128e+03 0 -1 -1
8361 52 15 0.0000000000000000e+00 2.8762540310433991e+02 2.5229278796768088e+02 2.8902975757134354e+03 0 -1 -1
8360 52 4 0.0000000000000000e+00 2.8918395620331279e+02 2.5585132333839084e+02 2.8914780206730998e+03 0 -1 -1
7850 49 15 0.0000000000000000e+00 3.0125732853296546e+02 2.5291072014189339e+02 2.8912088216191055e+03 0 0 -1
7849 49 9 0.0000000000000000e+00 3.0049427014235749e+02 2.5530386312512937e+02 2.8930305539792780e+03 0 0 -1
8358 52 4 0.0000000000000000e+00 2.9051954512366342e+02 2.5775044570086385e+02 2.8850907219010387e+03 0 -1 -1
7893 49 12 0.0000000000000000e+00 2.8920436289452897e+02 2.6947800112771785e+02 2.8967419400890508e+03 0 0 -1
8359 52 7 -1.0000000000000000e+00 2.8740827887129205e+02 2.5769619678565101e+02 2.8882180625626247e+03 0 -1 -1
7887 49 17 0.0000000000000000e+00 2.9247074749068548e+02 2.6787256997224443e+02 2.8858718057652031e+03 0 0 -1
7881 49 15 0.0000000000000000e+00 3.0952128842895274e+02 2.6364900113367901e+02 2.8896883381754392e+03 0 0 -1
650 4 9 0.0000000000000000e+00 3.0274433135199399e+02 2.5040280697615751e+02 2.9020834407021994e+03 -1 -1 -1
649 4 12 0.0000000000000000e+00 3.0231933525204460e+02 2.5434110366135207e+02 2.9001374536457124e+03 -1 -1 -1
7880 49 15 0.0000000000000000e+00 3.1223341225975526e+02 2.6145070312414254e+02 2.8912517188566162e+03 0 0 -1
7847 49 12 0.0000000000000000e+00 3.0368348426323757e+02 2.5905396719304389e+02 2.8974834969471331e+03 0 0 -1
7846 49 2 0.0000000000000000e+00 3.0610557486974358e+02 2.6154007561888022e+02 2.8971096108992629e+03 0 0 -1
7851 49 12 0.0000000000000000e+00 3.0180362579309588e+02 2.4894173257129660e+02 2.8920475452132264e+03 0 0 -1
7826 49 6 0.0000000000000000e+00 3.1274375834347541e+02 2.6533143950317600e+02 2.8849500226172454e+03 0 0 -1
7852 49 12 0.0000000000000000e+00 3.0477955176795734e+02 2.4833204879786447e+02 2.8898561546259430e+03 0 0 -1
7848 49 2 0.0000000000000000e+00 3.0302996714584594e+02 2.5783389771052060e+02 2.8937591221346015e+03 0 0 -1
7845 49 18 0.0000000000000000e+00 3.0622516313747298e+02 2.6572573489069686e+02 2.8965114643196321e+03 0 0 -1
7837 49 15 0.0000000000000000e+00 3.1538519941430917e+02 2.5800596543992577e+02 2.8938746485916226e+03 0 0 -1
7839 49 2 0.0000000000000000e+00 3.1981641951878817e+02 2.5983859842067773e+02 2.8938054242013818e+03 0 0 -1
7838 49 9 0.0000000000000000e+00 3.1834879872196700e+02 2.5688853184389086e+02 2.8917500830836912e+03 0 0 -1
7878 49 15 0.0000000000000000e+00 3.1270958895622539e+02 2.5810821910138282e+02 2.8869876103892884e+03 0 0 -1
7879 49 9 0.0000000000000000e+00 3.1418504199087437e+02 2.6109230892349979e+02 2.8888443072646642e+03 0 0 -1
7841 49 9 0.0000000000000000e+00 3.1931071900132406e+02 2.6627455451812108e+02 2.8910617594349783e+03 0 0 -1
648 4 17 0.0000000000000000e+00 3.0269273647504457e+02 2.5739103072590325e+02 2.9029910689013395e+03 -1 -1 -1
7871 49 4 0.0000000000000000e+00 3.0413844794908181e+02 2.5869356572263638e+02 2.8860732095198900e+03 0 0 -1
7844 49 12 0.0000000000000000e+00 3.1057537612994804e+02 2.6701195645950111e+02 2.8965753421469085e+03 0 0 -1
7842 49 18 0.0000000000000000e+00 3.1602346703303567e+02 2.6710581637381557e+02 2.8930199407497994e+03 0 0 -1
7843 49 4 0.0000000000000000e+00 3.1266435613340059e+02 2.6661289832626898e+02 2.8935421387156262e+03 0 0 -1
7835 49 4 0.0000000000000000e+00 3.1707891320802361e+02 2.6240821607921282e+02 2.8989768870789699e+03 0 0 -1
7877 49 15 0.0000000000000000e+00 3.1118044160592683e+02 2.5542610511425437e+02 2.8846836480425200e+03 0 0 -1
7829 49 7 -1.0000000000000000e+00 3.2160064293925308e+02 2.5960740995554158e+02 2.8862347767738920e+03 0 0 -1
7854 49 15 0.0000000000000000e+00 3.1258549778068317e+02 2.4802976304604630e+02 2.8897321448647645e+03 0 0 -1
7882 49 9 0.0000000000000000e+00 3.0578355337179511e+02 2.6436988242345979e+02 2.8876323235499781e+03 0 0 -1
7834 49 6 0.0000000000000000e+00 3.2118807903110286e+02 2.6291362598670122e+02 2.8989478793038907e+03 0 0 -1
7840 49 6 0.0000000000000000e+00 3.1983326033997747e+02 2.6256786626797094e+02 2.8919486036030335e+03 0 0 -1
7870 49 7 -1.0000000000000000e+00 3.0541820382359151e+02 2.5618301200744037e+02 2.8887955500335697e+03 0 0 -1
7869 49 4 0.0000000000000000e+00 3.0406334024023482e+02 2.5297960376111544e+02 2.8860558156218008e+03 0 0 -1
7884 49 12 0.0000000000000000e+00 3.0198215687579739e+02 2.6856097908457747e+02 2.8842783290241277e+03 0 0 -1
7836 49 12 0.0000000000000000e+00 3.1449872279404133e+02 2.6090408110541392e+02 2.8961572014179592e+03 0 0 -1
651 4 17 0.0000000000000000e+00 3.0557452295774004e+02 2.4849094747847056e+02 2.9027273887989022e+03 -1 -1 -1
7883 49 2 0.0000000000000000e+00 3.0403508239600473e+02 2.6779252548614852e+02 2.8872334165942643e+03 0 0 -1
7828 49 17 0.0000000000000000e+00 3.1913200781201931e+02 2.6148889562745353e+02 2.8845901209733111e+03 0 0 -1
8449 52 9 0.0000000000000000e+00 2.4371352811400814e+02 2.9226639894186889e+02 2.8937065325320300e+03 0 -1 -1
8450 52 2 0.0000000000000000e+00 2.4702238283779019e+02 2.9062716901795847e+02 2.8919464733665677e+03 0 -1 -1
8451 52 2 0.0000000000000000e+00 2.4543363390797643e+02 2.8918402490815146e+02 2.8895523612467518e+03 0 -1 -1
8426 52 9 0.0000000000000000e+00 2.5913265692694341e+02 2.8941403031246205e+02 2.8859374875772155e+03 0 -1 -1
8447 52 18 0.0000000000000000e+00 2.4329540064212304e+02 2.9278947426026338e+02 2.9004144905832600e+03 0 -1 -1
1588 10 15 0.0000000000000000e+00 2.5142376247525007e+02 2.8812467044203441e+02 2.9028213435435000e+03 0 -1 -1
1587 10 15 0.0000000000000000e+00 2.4880730822416518e+02 2.8549679364930847e+02 2.9025002271735602e+03 0 -1 -1
5470 34 9 0.0000000000000000e+00 2.5416775737621279e+02 2.7814181758828681e+02 2.8875148131098495e+03 -1 -1 0
8452 52 12 0.0000000000000000e+00 2.4634196651306348e+02 2.8783590884425803e+02 2.8866084504402938e+03 0 -1 -1
12062 74 15 0.0000000000000000e+00 2.4511832814581658e+02 2.7851875395315727e+02 2.9042160584518788e+03 0 -2 0
5469 34 15 0.0000000000000000e+00 2.5706675489755514e+02 2.7651315841060392e+02 2.8856321355966102e+03 -1 -1 0
6460 40 12 0.0000000000000000e+00 2.6343196582254603e+02 2.7432145501022848e+02 2.8880472810809247e+03 0 -1 -1
832 6 9 0.0000000000000000e+00 2.7737874532999717e+02 2.9060636988339894e+02 2.8845736549548083e+03 0 -1 -1
8428 52 15 0.0000000000000000e+00 2.6326968845790367e+02 2.8605856659211469e+02 2.8900780855943335e+03 0 -1 -1
8429 52 15 0.0000000000000000e+00 2.6619115299759261e+02 2.8467316616289662e+02 2.8902640904655514e+03 0 -1 -1
8431 52 12 0.0000000000000000e+00 2.7033372091048454e+02 2.8513282557868206e+02 2.8972499085640770e+03 0 -1 -1
8430 52 15 0.0000000000000000e+00 2.6744661873179069e+02 2.8511728645275934e+02 2.8943281339785663e+03 0 -1 -1
8435 52 9 0.0000000000000000e+00 2.6574021459136753e+02 2.8980216766379402e+02 2.8976063547535236e+03 0 -1 -1
8433 52 15 0.0000000000000000e+00 2.7014820719784785e+02 2.8642988160127771e+02 2.9042156931228355e+03 0 -1 -1
8434 52 15 0.0000000000000000e+00 2.6675597774253629e+02 2.8812446881514558e+02 2.9014011822631301e+03 0 -1 -1
8432 52 15 0.0000000000000000e+00 2.7150140102711032e+02 2.8480772398158337e+02 2.9009594935937616e+03 0 -1 -1
816 6 1 0.0000000000000000e+00 2.6806541311340379e+02 2.9211622759164578e+02 2.8846241655539138e+03 0 -1 -1
6457 40 9 0.0000000000000000e+00 2.6405087518349740e+02 2.7054236368997857e+02 2.8943568076844385e+03 0 -1 -1
833 6 18 0.0000000000000000e+00 2.7817531768735500e+02 2.9060106248049732e+02 2.8880332801096906e+03 0 -1 -1
6461 40 18 0.0000000000000000e+00 2.6662861787278621e+02 2.7611319994819934e+02 2.8866321824860820e+03 0 -1 -1
6462 40 6 0.0000000000000000e+00 2.6870556890442560e+02 2.7834552451654855e+02 2.8840848804377761e+03 0 -1 -1
8427 52 2 0.0000000000000000e+00 2.6117256586170510e+02 2.8621371426315881e+02 2.8870342848304722e+03 0 -1 -1
836 6 18 0.0000000000000000e+00 2.8421844741998729e+02 2.8792220967701547e+02 2.8958419108338589e+03 0 -1 -1
7891 49 2 0.0000000000000000e+00 2.9473943321300089e+02 2.7145719422489503e+02 2.8959621032984824e+03 0 0 -1
7890 49 9 0.0000000000000000e+00 2.9746848065225635e+02 2.7188107135847991e+02 2.8931961852859004e+03 0 0 -1
184 2 18 0.0000000000000000e+00 2.8359019459289493e+02 2.7979950767338886e+02 2.9049317863371161e+03 -1 -2 -1
838 6 12 0.0000000000000000e+00 2.9020798159942473e+02 2.8562059128862040e+02 2.8992506360975094e+03 0 -1 -1
178 2 2 0.0000000000000000e+00 2.9216514600488210e+02 2.8464401798054405e+02 2.8936759742874024e+03 -1 -2 -1
7897 49 12 0.0000000000000000e+00 2.9279207578875747e+02 2.7560561257677415e+02 2.9020530918626141e+03 0 0 -1
7896 49 18 0.0000000000000000e+00 2.8982309241650341e+02 2.7400502424404380e+02 2.9025452253692974e+03 0 0 -1
7895 49 4 0.0000000000000000e+00 2.8689534643532795e+02 2.7397803961317442e+02 2.9000485431854809e+03 0 0 -1
834 6 4 0.0000000000000000e+00 2.8165011258929621e+02 2.8916716052758608e+02 2.8889461261634528e+03 0 -1 -1
7894 49 15 0.0000000000000000e+00 2.8650475380363531e+02 2.7268437974710531e+02 2.8963915200437941e+03 0 0 -1
182 2 4 0.0000000000000000e+00 2.8184316095779241e+02 2.7962268033853468e+02 2.8982997924733841e+03 -1 -2 -1
183 2 12 0.0000000000000000e+00 2.8146598771070245e+02 2.7800811656775511e+02 2.9021619185767327e+03 -1 -2 -1
7888 49 4 0.0000000000000000e+00 2.9315867868789667e+02 2.7053529508299613e+02 2.8886829414596864e+03 0 0 -1
7889 49 2 0.0000000000000000e+00 2.9677977418062409e+02 2.7174231284412679e+02 2.8894929291681847e+03 0 0 -1
180 2 9 0.0000000000000000e+00 2.8569157292450848e+02 2.8197562417459505e+02 2.8931382114304834e+03 -1 -2 -1
181 2 18 0.0000000000000000e+00 2.8497223984463795e+02 2.8035890449291327e+02 2.8966059989712676e+03 -1 -2 -1
179 2 6 0.0000000000000000e+00 2.8936924511029974e+02 2.8187209251072011e+02 2.8932526743986532e+03 -1 -2 -1
177 2 9 0.0000000000000000e+00 2.9198110032218790e+02 2.8758364440811732e+02 2.8912630188663065e+03 -1 -2 -1
835 6 12 0.0000000000000000e+00 2.8283181534175509e+02 2.8752319439717297e+02 2.8919547055041389e+03 0 -1 -1
837 6 2 0.0000000000000000e+00 2.8679016184483646e+02 2.8748921306494054e+02 2.8983606005461947e+03 0 -1 -1
191 2 12 0.0000000000000000e+00 2.9499938628194087e+02 2.9177148017654770e+02 2.9048209822331487e+03 -1 -2 -1
7899 49 9 0.0000000000000000e+00 2.9706469597017974e+02 2.8092791953277953e+02 2.9006240047412375e+03 0 0 -1
7898 49 2 0.0000000000000000e+00 2.9500430401270967e+02 2.7906704147464768e+02 2.9024843093869836e+03 0 0 -1
190 2 12 0.0000000000000000e+00 2.9422259589529915e+02 2.8748711517678220e+02 2.9046200990892194e+03 -1 -2 -1
7908 49 15 0.0000000000000000e+00 2.9936451055734710e+02 2.7205321827056918e+02 2.9039463321375647e+03 0 0 -1
7900 49 2 0.0000000000000000e+00 2.9853359678589749e+02 2.8310835406186834e+02 2.9040606332733705e+03 0 0 -1
176 2 15 0.0000000000000000e+00 2.9564709676190796e+02 2.8723521963148858e+02 2.8900552846157889e+03 -1 -2 -1
839 6 2 0.0000000000000000e+00 2.9334702918531411e+02 2.8849834176970404e+02 2.8976783791611920e+03 0 -1 -1
175 2 12 0.0000000000000000e+00 2.9758652272684679e+02 2.8595081246040144e+02 2.8868942242638846e+03 -1 -2 -1
840 6 9 0.0000000000000000e+00 2.9153437305716250e+02 2.9234248251343831e+02 2.8964767072576210e+03 0 -1 -1
7967 49 9 0.0000000000000000e+00 3.1863753683891349e+02 2.8230818770823123e+02 2.8987808539231160e+03 0 0 -1
7966 49 15 0.0000000000000000e+00 3.1900638467459834e+02 2.8395474175156164e+02 2.8961144566436569e+03 0 0 -1
7968 49 2 0.0000000000000000e+00 3.2179115212757438e+02 2.8034084452416164e+02 2.8988915293835330e+03 0 0 -1
7963 49 12 0.0000000000000000e+00 3.2029045037982792e+02 2.8566176957441570e+02 2.9047905134128432e+03 0 0 -1
7983 49 17 0.0000000000000000e+00 3.0908199264329227e+02 2.8349726017341936e+02 2.8998669216247531e+03 0 0 -1
7987 49 15 0.0000000000000000e+00 3.1510421653206470e+02 2.8546164428836261e+02 2.8928330927046718e+03 0 0 -1
7985 49 9 0.0000000000000000e+00 3.1400138943444557e+02 2.8847018684380606e+02 2.8979399415642060e+03 0 0 -1
7986 49 17 0.0000000000000000e+00 3.1603584195232594e+02 2.8888711364918612e+02 2.8948368515595894e+03 0 0 -1
7984 49 12 0.0000000000000000e+00 3.1268825423644824e+02 2.8571299352230091e+02 2.8988887993500362e+03 0 0 -1
7982 49 12 0.0000000000000000e+00 3.0995602094105669e+02 2.7955570855883929e+02 2.8996822658800725e+03 0 0 -1
167 2 17 0.0000000000000000e+00 3.1801985802538059e+02 2.9218792219078705e+02 2.8860547818249261e+03 -1 -2 -1
7909 49 12 0.0000000000000000e+00 3.0203387315492705e+02 2.7528860451499907e+02 2.9033581342280881e+03 0 0 -1
7981 49 12 0.0000000000000000e+00 3.0791296616092092e+02 2.7749581435507071e+02 2.9013426604417564e+03 0 0 -1
7980 49 2 0.0000000000000000e+00 3.0979745397749321e+02 2.7744535158234163e+02 2.9049147804737354e+03 0 0 -1
7975 49 18 0.0000000000000000e+00 3.2209409462638661e+02 2.7427781277529766e+02 2.9031469692198048e+03 0 0 -1
173 2 6 0.0000000000000000e+00 3.0197558458813228e+02 2.9115820313563427e+02 2.8853214199415520e+03 -1 -2 -1
164 2 1 0.0000000000000000e+00 3.1124816294753685e+02 2.9109497392153065e+02 2.8873566700826532e+03 -1 -2 -1
174 2 4 0.0000000000000000e+00 3.0187574872301400e+02 2.8729169061495145e+02 2.8861045854815707e+03 -1 -2 -1
2779 18 12 0.0000000000000000e+00 2.4427798672689985e+02 2.6203026099124338e+02 2.9091306322478217e+03 0 -1 -1
2778 18 4 0.0000000000000000e+00 2.4500061462571315e+02 2.6400590383942341e+02 2.9062934933857327e+03 0 -1 -1
2784 18 15 0.0000000000000000e+00 2.4441316804382714e+02 2.6666144079740070e+02 2.9191833104101697e+03 0 -1 -1
4695 29 15 0.0000000000000000e+00 2.4721267516588142e+02 2.5113664511401032e+02 2.9208876373581234e+03 -1 -1 -1
2780 18 12 0.0000000000000000e+00 2.4143847325197822e+02 2.6067827265854504e+02 2.9102186201774125e+03 0 -1 -1
2786 18 2 0.0000000000000000e+00 2.4128177981274445e+02 2.6414392486584654e+02 2.9230920678573170e+03 0 -1 -1
4696 29 12 0.0000000000000000e+00 2.4868400496018822e+02 2.5418643743865607e+02 2.9235042673754224e+03 -1 -1 -1
4701 29 2 0.0000000000000000e+00 2.5819077634492294e+02 2.5642936672598944e+02 2.9211067225195234e+03 -1 -1 -1
4703 29 12 0.0000000000000000e+00 2.5913611112017009e+02 2.6333835229000704e+02 2.9197443661000839e+03 -1 -1 -1
4702 29 2 0.0000000000000000e+00 2.5892708596919090e+02 2.5952962086323083e+02 2.9200860846301343e+03 -1 -1 -1
4704 29 12 0.0000000000000000e+00 2.5688898903836491e+02 2.6666765094246131e+02 2.9209376540533881e+03 -1 -1 -1
4705 29 12 0.0000000000000000e+00 2.5525741610483863e+02 2.6535286101273391e+02 2.9241125422141763e+03 -1 -1 -1
1482 10 2 0.0000000000000000e+00 2.5351328298501517e+02 2.6818688840645353e+02 2.9165322474593204e+03 0 -1 -1
1481 10 9 0.0000000000000000e+00 2.5003631417756802e+02 2.6832206131293339e+02 2.9188444421963791e+03 0 -1 -1
1483 10 6 0.0000000000000000e+00 2.5385961357167488e+02 2.6913539875419036e+02 2.9133089491698202e+03 0 -1 -1
1485 10 18 0.0000000000000000e+00 2.5942876501730393e+02 2.7008630450512413e+02 2.9127613241706049e+03 0 -1 -1
4699 29 15 0.0000000000000000e+00 2.5688709409868915e+02 2.5715463247191161e+02 2.9257485955998973e+03 -1 -1 -1
4700 29 9 0.0000000000000000e+00 2.5795554403832449e+02 2.5375363766854821e+02 2.9242964419407799e+03 -1 -1 -1
2785 18 9 0.0000000000000000e+00 2.4514886661873689e+02 2.6505425851239403e+02 2.9227365441967581e+03 0 -1 -1
2783 18 12 0.0000000000000000e+00 2.4218835076445467e+02 2.6784951194319780e+02 2.9169204728526242e+03 0 -1 -1
2781 18 6 0.0000000000000000e+00 2.4039912004121260e+02 2.6293918828454349e+02 2.9129438568374112e+03 0 -1 -1
4694 29 9 0.0000000000000000e+00 2.5063247830060342e+02 2.4849742735340109e+02 2.9201032908957968e+03 -1 -1 -1
3310 21 9 0.0000000000000000e+00 2.7883645667010057e+02 2.4911227129174492e+02 2.9250623993661029e+03 0 -1 -1
1786 11 2 0.0000000000000000e+00 2.7783535850499447e+02 2.6094151239728097e+02 2.9240277751859730e+03 -1 0 -1
1784 11 2 0.0000000000000000e+00 2.7302343452102156e+02 2.5964242977754793e+02 2.9257911994071037e+03 -1 0 -1
3308 21 15 0.0000000000000000e+00 2.7460932776994827e+02 2.5355427780391588e+02 2.9239076783643791e+03 0 -1 -1
3307 21 4 0.0000000000000000e+00 2.7382281433228576e+02 2.5419667893906396e+02 2.9203384782708185e+03 0 -1 -1
3309 21 2 0.0000000000000000e+00 2.7815046879577147e+02 2.5279157366325865e+02 2.9238616373612590e+03 0 -1 -1
1785 11 9 0.0000000000000000e+00 2.7453562393182818e+02 2.5967162038532177e+02 2.9226015837306168e+03 -1 0 -1
1787 11 12 0.0000000000000000e+00 2.7987859701426123e+02 2.6312964322053881e+02 2.9254635466757168e+03 -1 0 -1
3305 21 4 0.0000000000000000e+00 2.7967768892463113e+02 2.4982191308523119e+02 2.9182768338910860e+03 0 -1 -1
3306 21 7 -1.0000000000000000e+00 2.7614302940847881e+02 2.5074400396201008e+02 2.9192848660619711e+03 0 -1 -1
621 4 12 0.0000000000000000e+00 2.8183795167251469e+02 2.6225981741872755e+02 2.9171812383262186e+03 -1 -1 -1
623 4 18 0.0000000000000000e+00 2.8388066487768413e+02 2.6769038699237626e+02 2.9144437824330175e+03 -1 -1 -1
622 4 12 0.0000000000000000e+00 2.8284820999301911e+02 2.6415366753657253e+02 2.9142517458052321e+03 -1 -1 -1
624 4 15 0.0000000000000000e+00 2.8726332653504801e+02 2.6779661581705733e+02 2.9168576535510010e+03 -1 -1 -1
620 4 15 0.0000000000000000e+00 2.8119788174858388e+02 2.5949458768962785e+02 2.9204723167861043e+03 -1 -1 -1
3313 21 15 0.0000000000000000e+00 2.8350199931960697e+02 2.5045689817816282e+02 2.9217970726289464e+03 0 -1 -1
638 4 9 0.0000000000000000e+00 2.9766720885470085e+02 2.5883925930573719e+02 2.9100402142568487e+03 -1 -1 -1
636 4 12 0.0000000000000000e+00 2.9178153977747633e+02 2.5570676770272345e+02 2.9113881422319960e+03 -1 -1 -1
635 4 12 0.0000000000000000e+00 2.8953726089731288e+02 2.5740269379133952e+02 2.9142412318197203e+03 -1 -1 -1
634 4 12 0.0000000000000000e+00 2.8856294482018131e+02 2.6160354651962780e+02 2.9149280874291226e+03 -1 -1 -1
3314 21 15 0.0000000000000000e+00 2.8543137563235558e+02 2.5041500912558718e+02 2.9255558887073776e+03 0 -1 -1
631 4 15 0.0000000000000000e+00 2.9523275963430820e+02 2.6500321807130837e+02 2.9208945432201854e+03 -1 -1 -1
630 4 12 0.0000000000000000e+00 2.9847526146371678e+02 2.6621725112826078e+02 2.9234625388694449e+03 -1 -1 -1
632 4 9 0.0000000000000000e+00 2.9215024137609612e+02 2.6480131547058443e+02 2.9209112593292252e+03 -1 -1 -1
633 4 2 0.0000000000000000e+00 2.9033113980308951e+02 2.6207497692950506e+02 2.9190585427978535e+03 -1 -1 -1
7916 49 2 0.0000000000000000e+00 3.0048345592042358e+02 2.6563015042338338e+02 2.9129538553738466e+03 0 0 -1
7917 49 12 0.0000000000000000e+00 3.0079916782887057e+02 2.6337738254064573e+02 2.9161149480160079e+03 0 0 -1
629 4 12 0.0000000000000000e+00 2.9738430327222301e+02 2.6999633853143877e+02 2.9238537818401587e+03 -1 -1 -1
7915 49 9 0.0000000000000000e+00 2.9831647709290706e+02 2.6899816164729361e+02 2.9120606902806949e+03 0 0 -1
639 4 17 0.0000000000000000e+00 2.9926156034666792e+02 2.5681118087818766e+02 2.9134026753120952e+03 -1 -1 -1
625 4 9 0.0000000000000000e+00 2.9026151373145944e+02 2.6996657280164214e+02 2.9175213208240184e+03 -1 -1 -1
1793 11 15 0.0000000000000000e+00 2.9059410489933572e+02 2.5579220824877086e+02 2.9198147225545863e+03 -1 0 -1
2486 16 9 0.0000000000000000e+00 2.9646353778471075e+02 2.5427817820282954e+02 2.9202149255966328e+03 -1 -1 -1
1791 11 9 0.0000000000000000e+00 2.8995076145595306e+02 2.5970702362084717e+02 2.9242325016675290e+03 -1 0 -1
1792 11 17 0.0000000000000000e+00 2.8892249671493062e+02 2.5694847186535083e+02 2.9239104281182163e+03 -1 0 -1
2485 16 2 0.0000000000000000e+00 2.9692281907006435e+02 2.5478556797349668e+02 2.9245409488501250e+03 -1 -1 -1
2487 16 15 0.0000000000000000e+00 2.9918860736411028e+02 2.5151607459717141e+02 2.9194195725756222e+03 -1 -1 -1
637 4 15 0.0000000000000000e+00 2.9392714775480118e+02 2.5926782302800524e+02 2.9104710750232466e+03 -1 -1 -1
619 4 9 0.0000000000000000e+00 2.8293002906755635e+02 2.5747360781121046e+02 2.9228654169807464e+03 -1 -1 -1
1788 11 12 0.0000000000000000e+00 2.8287590652594923e+02 2.6529795252288511e+02 2.9251054727185392e+03 -1 0 -1
3315 21 9 0.0000000000000000e+00 2.8899721039460422e+02 2.4912381150766583e+02 2.9259775459891061e+03 0 -1 -1
1790 11 12 0.0000000000000000e+00 2.8839129275528006e+02 2.6266988714880785e+02 2.9260239867886298e+03 -1 0 -1
1789 11 17 0.0000000000000000e+00 2.8634814434748364e+02 2.6584479897492133e+02 2.9243406764230176e+03 -1 0 -1
9004 56 15 0.0000000000000000e+00 3.2187167423222712e+02 2.5291958822870541e+02 2.9055516095019125e+03 0 -1 -1
641 4 18 0.0000000000000000e+00 3.0384757693631377e+02 2.5618927847844537e+02 2.9170369830365635e+03 -1 -1 -1
640 4 18 0.0000000000000000e+00 3.0280882161504172e+02 2.5855883389877232e+02 2.9138686824344554e+03 -1 -1 -1
643 4 2 0.0000000000000000e+00 3.0886651453630810e+02 2.5599249781830574e+02 2.9133213285742272e+03 -1 -1 -1
647 4 12 0.0000000000000000e+00 3.0510097005706240e+02 2.5576421414264203e+02 2.9057981636982827e+03 -1 -1 -1
646 4 12 0.0000000000000000e+00 3.0347059429678643e+02 2.5491973702081719e+02 2.9090007141106803e+03 -1 -1 -1
7918 49 12 0.0000000000000000e+00 3.0394612902116131e+02 2.6377423207971270e+02 2.9182059119806017e+03 0 0 -1
645 4 2 0.0000000000000000e+00 3.0662664382124262e+02 2.5183896518488910e+02 2.9086303253903543e+03 -1 -1 -1
642 4 12 0.0000000000000000e+00 3.0708618228810241e+02 2.5479094209014818e+02 2.9164821007328514e+03 -1 -1 -1
644 4 9 0.0000000000000000e+00 3.0953992889568406e+02 2.5467688952883668e+02 2.9096984047732435e+03 -1 -1 -1
7919 49 15 0.0000000000000000e+00 3.0411482766712766e+02 2.6720058586893566e+02 2.9189793703336668e+03 0 0 -1
7920 49 15 0.0000000000000000e+00 3.0646679689962576e+02 2.6892712011855980e+02 2.9217531909077761e+03 0 0 -1
9003 56 9 0.0000000000000000e+00 3.1940424120233433e+02 2.5296120093726461e+02 2.9093287136053859e+03 0 -1 -1
7947 49 2 0.0000000000000000e+00 3.1979033568530411e+02 2.6158117253832557e+02 2.9156130362334416e+03 0 0 -1
7946 49 9 0.0000000000000000e+00 3.2144069342140398e+02 2.6101864036640319e+02 2.9189220508355852e+03 0 0 -1
7950 49 12 0.0000000000000000e+00 3.1185825134314530e+02 2.6175689352214226e+02 2.9134281129392762e+03 0 0 -1
7948 49 12 0.0000000000000000e+00 3.1780560366313068e+02 2.6279377057392094e+02 2.9123249489415102e+03 0 0 -1
7949 49 18 0.0000000000000000e+00 3.1412467443810289e+02 2.6237546136627623e+02 2.9108710365193961e+03 0 0 -1
7951 49 15 0.0000000000000000e+00 3.1203070140587698e+02 2.6417099512343327e+02 2.9162799258500245e+03 0 0 -1
7952 49 2 0.0000000000000000e+00 3.1051446429595836e+02 2.6681299351187954e+02 2.9131150934423226e+03 0 0 -1
7953 49 15 0.0000000000000000e+00 3.0849397320060979e+02 2.7007033520473220e+02 2.9103872168791877e+03 0 0 -1
10890 67 12 0.0000000000000000e+00 3.0328336587265903e+02 2.5696025643592537e+02 2.9257164994315508e+03 -1 0 -1
10891 67 12 0.0000000000000000e+00 3.0375532388483589e+02 2.5380070402710612e+02 2.9260717019692443e+03 -1 0 -1
2488 16 12 0.0000000000000000e+00 3.0188644345760173e+02 2.4831930274821556e+02 2.9198353572096471e+03 -1 -1 -1
7925 49 2 0.0000000000000000e+00 3.1815292440524092e+02 2.6601307865469198e+02 2.9258881311705522e+03 0 0 -1
12061 74 17 0.0000000000000000e+00 2.4694463837872820e+02 2.7606006862099434e+02 2.9059293433247835e+03 0 -2 0
1582 10 15 0.0000000000000000e+00 2.4057583400759336e+02 2.9064300133629888e+02 2.9081125742343247e+03 0 -1 -1
12059 74 12 0.0000000000000000e+00 2.4431513499408931e+02 2.7186745064269667e+02 2.9108488390710850e+03 0 -2 0
12060 74 9 0.0000000000000000e+00 2.4565065821978556e+02 2.7515273800791215e+02 2.9096830040347168e+03 0 -2 0
1484 10 9 0.0000000000000000e+00 2.5622685089411027e+02 2.7177268095372557e+02 2.9121393988189775e+03 0 -1 -1
1472 10 7 -1.0000000000000000e+00 2.4151852880172345e+02 2.8896771397149121e+02 2.9163334186154498e+03 0 -1 -1
12058 74 17 0.0000000000000000e+00 2.4166042546657590e+02 2.7254556690534429e+02 2.9131790841663769e+03 0 -2 0
1474 10 4 0.0000000000000000e+00 2.4150412000351497e+02 2.8845824612189585e+02 2.9220884790778182e+03 0 -1 -1
1473 10 9 0.0000000000000000e+00 2.4026907300015372e+02 2.9084893294879203e+02 2.9195505789799122e+03 0 -1 -1
1585 10 12 0.0000000000000000e+00 2.4662992128891992e+02 2.8451227294208888e+02 2.9076368237578181e+03 0 -1 -1
1475 10 12 0.0000000000000000e+00 2.4418591628144901e+02 2.8562506473114911e+02 2.9195754640467512e+03 0 -1 -1
1586 10 15 0.0000000000000000e+00 2.4934145540781461e+02 2.8354179998018799e+02 2.9057589175328667e+03 0 -1 -1
1476 10 12 0.0000000000000000e+00 2.4318656762648936e+02 2.8125436827447260e+02 2.9199075490222099e+03 0 -1 -1
1491 10 2 0.0000000000000000e+00 2.5688488957090982e+02 2.7992079769388397e+02 2.9144621095906477e+03 0 -1 -1
1490 10 12 0.0000000000000000e+00 2.6039173248668851e+02 2.8000355434062652e+02 2.9128272690745866e+03 0 -1 -1
1493 10 15 0.0000000000000000e+00 2.5497870624496068e+02 2.8069940705554171e+02 2.9210778259670728e+03 0 -1 -1
1495 10 12 0.0000000000000000e+00 2.5686546462334098e+02 2.8626408612446750e+02 2.9247301294522126e+03 0 -1 -1
1492 10 9 0.0000000000000000e+00 2.5641288199550814e+02 2.7966318966284882e+02 2.9178878916435351e+03 0 -1 -1
1494 10 12 0.0000000000000000e+00 2.5644459199957345e+02 2.8291865493573584e+02 2.9237776845951234e+03 0 -1 -1
1480 10 15 0.0000000000000000e+00 2.4840091826628307e+02 2.7089907328715088e+02 2.9200449098272893e+03 0 -1 -1
1584 10 15 0.0000000000000000e+00 2.4356754472178147e+02 2.8455615421402024e+02 2.9072775420566195e+03 0 -1 -1
1471 10 17 0.0000000000000000e+00 2.4330243903953505e+02 2.9027525553705442e+02 2.9129917789780029e+03 0 -1 -1
1489 10 2 0.0000000000000000e+00 2.5818090560954982e+02 2.7741088401219946e+02 2.9108079839640554e+03 0 -1 -1
1479 10 12 0.0000000000000000e+00 2.4516018778924573e+02 2.7348155137995548e+02 2.9212512677829263e+03 0 -1 -1
1583 10 15 0.0000000000000000e+00 2.4153076206143285e+02 2.8707295612783480e+02 2.9090609821845669e+03 0 -1 -1
1478 10 4 0.0000000000000000e+00 2.4160883883542112e+02 2.7451213298380185e+02 2.9193797679253298e+03 0 -1 -1
1477 10 6 0.0000000000000000e+00 2.4206406635933129e+02 2.7798857935720940e+02 2.9184747229920627e+03 0 -1 -1
1496 10 15 0.0000000000000000e+00 2.5748252919778963e+02 2.8929379105830361e+02 2.9259604381052359e+03 0 -1 -1
10139 63 9 0.0000000000000000e+00 2.4050658600463791e+02 2.7891072899316725e+02 2.9249970676143012e+03 0 -1 -1
10141 63 12 0.0000000000000000e+00 2.4179056872681451e+02 2.7263822548026883e+02 2.9259300755285417e+03 0 -1 -1
1581 10 2 0.0000000000000000e+00 2.4374299000245929e+02 2.9210910842794692e+02 2.9071967652159815e+03 0 -1 -1
1468 10 1 0.0000000000000000e+00 2.4935815182718918e+02 2.9122589527074950e+02 2.9135425686338363e+03 0 -1 -1
1589 10 9 0.0000000000000000e+00 2.5326038287657309e+02 2.9031016175929244e+02 2.9054603643955202e+03 0 -1 -1
5019 31 15 0.0000000000000000e+00 2.6696702004372349e+02 2.9224389133585402e+02 2.9243226112705315e+03 -1 -1 -1
1615 10 15 0.0000000000000000e+00 2.7475300861150748e+02 2.8666939497372391e+02 2.9188494358805920e+03 0 -1 -1
1612 10 12 0.0000000000000000e+00 2.7137945070277988e+02 2.8901625807720120e+02 2.9108606858865778e+03 0 -1 -1
1614 10 12 0.0000000000000000e+00 2.7349669058106673e+02 2.8824263576510617e+02 2.9165480946036105e+03 0 -1 -1
1486 10 4 0.0000000000000000e+00 2.6291584525500690e+02 2.7143611898017184e+02 2.9113761395155425e+03 0 -1 -1