LAMMPS data file via write_data, version 2 Jun 2020, timestep = 50000

13040 atoms
40 atom types
12960 bonds
1 bond types

2.4000000000000000e+02 4.0650000000000000e+02 xlo xhi
2.4800000000000000e+02 4.1450000000000000e+02 ylo yhi
2.8840000000000000e+03 3.0505000000000000e+03 zlo zhi

Masses

1 131.2
2 57.05
3 128.2
4 101.1
5 156.2
6 71.08
7 115.1
8 129.1
9 163.2
10 99.07
11 113.2
12 128.1
13 186.2
14 147.2
15 87.08
16 137.1
17 114.1
18 97.12
19 103.1
20 113.2
21 131.2
22 57.05
23 128.2
24 101.1
25 156.2
26 71.08
27 115.1
28 129.1
29 163.2
30 99.07
31 113.2
32 128.1
33 186.2
34 147.2
35 87.08
36 137.1
37 114.1
38 97.12
39 103.1
40 113.2

Bond Coeffs # harmonic

1 2.39 3.81

Atoms # full

11306 70 2 0.0000000000000000e+00 2.5103450625390380e+02 2.5171611354603596e+02 2.8923470381768716e+03 1 -1 0
11307 70 12 0.0000000000000000e+00 2.5248934329842263e+02 2.5486865029475712e+02 2.8905760326824829e+03 1 -1 0
11310 70 17 0.0000000000000000e+00 2.5847496762356161e+02 2.6013969348169582e+02 2.8948916130143302e+03 1 -1 0
11311 70 4 0.0000000000000000e+00 2.5569015143363981e+02 2.6221977347411655e+02 2.8929238508039834e+03 1 -1 0
11305 70 9 0.0000000000000000e+00 2.4929650630410254e+02 2.5065399932571631e+02 2.8951501465473866e+03 1 -1 0
11303 70 15 0.0000000000000000e+00 2.4490047283651151e+02 2.5229338036085184e+02 2.8909829372649488e+03 1 -1 0
11304 70 15 0.0000000000000000e+00 2.4651501458881367e+02 2.5313392555130162e+02 2.8946507732006426e+03 1 -1 0
11309 70 12 0.0000000000000000e+00 2.5840692878493246e+02 2.5712690434642712e+02 2.8931109977327269e+03 1 -1 0
11308 70 15 0.0000000000000000e+00 2.5544865093234230e+02 2.5559249104264333e+02 2.8923249634608082e+03 1 -1 0
11302 70 9 0.0000000000000000e+00 2.4207827916769176e+02 2.5096249092019374e+02 2.8897107645525962e+03 1 -1 0
11312 70 2 0.0000000000000000e+00 2.5306948316184361e+02 2.6488327274989962e+02 2.8935703936228997e+03 1 -1 0
11314 70 2 0.0000000000000000e+00 2.5123999027162790e+02 2.6748847179644889e+02 2.8966206916228393e+03 1 -1 0
3408 21 15 0.0000000000000000e+00 2.6369403141358407e+02 2.5027173158756338e+02 2.9026762615551884e+03 0 -1 -1
3409 21 9 0.0000000000000000e+00 2.6458287099921807e+02 2.5355311317027949e+02 2.9035804407564378e+03 0 -1 -1
11295 70 15 0.0000000000000000e+00 2.4108544422667399e+02 2.6353034319144462e+02 2.8845823157555833e+03 1 -1 0
3410 21 17 0.0000000000000000e+00 2.6578530450343425e+02 2.5411565883816996e+02 2.8996790109540898e+03 0 -1 -1
3412 21 18 0.0000000000000000e+00 2.7202256308903202e+02 2.5450419971534419e+02 2.9015463649137100e+03 0 -1 -1
2474 16 15 0.0000000000000000e+00 2.7824092927286603e+02 2.6114351550455757e+02 2.8958825741957066e+03 -1 -1 -1
2476 16 12 0.0000000000000000e+00 2.7946442804338307e+02 2.5419773299332815e+02 2.8964541342854782e+03 -1 -1 -1
2473 16 12 0.0000000000000000e+00 2.7657490097703135e+02 2.6217939725628628e+02 2.8927902792070845e+03 -1 -1 -1
2475 16 15 0.0000000000000000e+00 2.8085042503387302e+02 2.5811832954854395e+02 2.8955455725828911e+03 -1 -1 -1
2472 16 12 0.0000000000000000e+00 2.7740243380325120e+02 2.6187015025824667e+02 2.8894559619018314e+03 -1 -1 -1
2464 16 4 0.0000000000000000e+00 2.9036342106094179e+02 2.6270179934045888e+02 2.8865260305651823e+03 -1 -1 -1
6426 40 12 0.0000000000000000e+00 2.8941353153557515e+02 2.5661322823340021e+02 2.9013191171470121e+03 0 -1 -1
6427 40 15 0.0000000000000000e+00 2.8629236459291218e+02 2.5503847685389366e+02 2.8996684661118279e+03 0 -1 -1
2463 16 18 0.0000000000000000e+00 2.9055388301069644e+02 2.5892478668633220e+02 2.8858656121310751e+03 -1 -1 -1
8384 52 4 0.0000000000000000e+00 2.8175581235904491e+02 2.6699583581397604e+02 2.8992748427211104e+03 0 -1 -1
8385 52 18 0.0000000000000000e+00 2.7761907948227355e+02 2.6589347583404594e+02 2.8985153172988526e+03 0 -1 -1
3411 21 18 0.0000000000000000e+00 2.6956289004012172e+02 2.5589825054826704e+02 2.8991010150719349e+03 0 -1 -1
2468 16 12 0.0000000000000000e+00 2.8636085870417645e+02 2.6677316028321013e+02 2.8891000107912000e+03 -1 -1 -1
2467 16 2 0.0000000000000000e+00 2.8851031174115320e+02 2.6612410654305671e+02 2.8924592592820413e+03 -1 -1 -1
6429 40 18 0.0000000000000000e+00 2.9027981639016110e+02 2.5695310309309735e+02 2.8941576402469709e+03 0 -1 -1
6428 40 4 0.0000000000000000e+00 2.8741313773348685e+02 2.5711280907974617e+02 2.8961304587895238e+03 0 -1 -1
8383 52 15 0.0000000000000000e+00 2.8554952974781406e+02 2.6670979731651107e+02 2.8979402332733816e+03 0 -1 -1
2477 16 18 0.0000000000000000e+00 2.7924374122203830e+02 2.5512993962506420e+02 2.9005863552207379e+03 -1 -1 -1
3413 21 12 0.0000000000000000e+00 2.7193148776756095e+02 2.5073647565777077e+02 2.9013256447351678e+03 0 -1 -1
2792 18 18 0.0000000000000000e+00 2.7291109648674137e+02 2.6670894333485711e+02 2.8922954776634560e+03 0 -1 -1
2794 18 12 0.0000000000000000e+00 2.7235123471970019e+02 2.6770577201615822e+02 2.8994170249541321e+03 0 -1 -1
3416 21 2 0.0000000000000000e+00 2.6777563932282862e+02 2.4803632598876345e+02 2.8920086251411431e+03 0 -1 -1
3414 21 2 0.0000000000000000e+00 2.7008907448466022e+02 2.4862220051806895e+02 2.8977318175826385e+03 0 -1 -1
8387 52 2 0.0000000000000000e+00 2.7933052016773235e+02 2.6569230680699457e+02 2.9040622873454445e+03 0 -1 -1
8386 52 12 0.0000000000000000e+00 2.7752754943196055e+02 2.6277169727380499e+02 2.9014625672180082e+03 0 -1 -1
2478 16 9 0.0000000000000000e+00 2.7937746908297612e+02 2.5301028441407249e+02 2.9041380528320574e+03 -1 -1 -1
6425 40 4 0.0000000000000000e+00 2.9037077505919484e+02 2.6005949795927057e+02 2.9028637940018743e+03 0 -1 -1
2469 16 2 0.0000000000000000e+00 2.8428609927128065e+02 2.6781505158957754e+02 2.8859043474419836e+03 -1 -1 -1
2470 16 9 0.0000000000000000e+00 2.8099977329412445e+02 2.6529109684492187e+02 2.8850130441477004e+03 -1 -1 -1
2471 16 15 0.0000000000000000e+00 2.7799064272123661e+02 2.6290138410388107e+02 2.8855876281546039e+03 -1 -1 -1
2466 16 18 0.0000000000000000e+00 2.9129468595382542e+02 2.6355802561302011e+02 2.8935833944711999e+03 -1 -1 -1
2465 16 12 0.0000000000000000e+00 2.9250900841943769e+02 2.6279514509592116e+02 2.8899921432631127e+03 -1 -1 -1
6424 40 2 0.0000000000000000e+00 2.9218984696508716e+02 2.6099551242833775e+02 2.9003290120711267e+03 0 -1 -1
2559 16 2 0.0000000000000000e+00 3.0903739619168198e+02 2.4908111848167110e+02 2.8934122426565650e+03 -1 -1 -1
6421 40 4 0.0000000000000000e+00 2.9941686132478560e+02 2.6320835285962994e+02 2.9015694834880624e+03 0 -1 -1
6422 40 2 0.0000000000000000e+00 2.9703856259802075e+02 2.6514712384810485e+02 2.9031628757519939e+03 0 -1 -1
6423 40 9 0.0000000000000000e+00 2.9300237605751346e+02 2.6501665268215282e+02 2.9013332067734113e+03 0 -1 -1
6420 40 17 0.0000000000000000e+00 3.0296721165258691e+02 2.6391877080000540e+02 2.9003807642874954e+03 0 -1 -1
2558 16 9 0.0000000000000000e+00 3.1142376236278892e+02 2.5061091819678231e+02 2.8961742170271286e+03 -1 -1 -1
2556 16 2 0.0000000000000000e+00 3.1313715987577046e+02 2.5615194661274313e+02 2.8982201579582197e+03 -1 -1 -1
2557 16 15 0.0000000000000000e+00 3.1028298050522301e+02 2.5438069871149924e+02 2.8969282102982434e+03 -1 -1 -1
2554 16 4 0.0000000000000000e+00 3.0770586529284896e+02 2.5913797263939853e+02 2.9007063429968548e+03 -1 -1 -1
2555 16 15 0.0000000000000000e+00 3.1161838117078685e+02 2.5980227423214103e+02 2.8998263024952139e+03 -1 -1 -1
6419 40 12 0.0000000000000000e+00 3.0368408542037417e+02 2.6557105185965253e+02 2.8979758954818840e+03 0 -1 -1
2553 16 15 0.0000000000000000e+00 3.0632121652763220e+02 2.5599211971743037e+02 2.9009173324215139e+03 -1 -1 -1
6418 40 15 0.0000000000000000e+00 3.0727763213475657e+02 2.6599834808348402e+02 2.8963509433909480e+03 0 -1 -1
6431 40 2 0.0000000000000000e+00 2.9544424216704203e+02 2.5175533879111120e+02 2.8923930022061058e+03 0 -1 -1
6430 40 12 0.0000000000000000e+00 2.9251089506781443e+02 2.5392081394791663e+02 2.8949141519850405e+03 0 -1 -1
6417 40 12 0.0000000000000000e+00 3.0878495894418143e+02 2.6294711914880457e+02 2.8950203664753226e+03 0 -1 -1
6433 40 2 0.0000000000000000e+00 3.0131679842858733e+02 2.5127582700656322e+02 2.8947420398104609e+03 0 -1 -1
6415 40 9 0.0000000000000000e+00 3.0689577395415006e+02 2.5793901873841645e+02 2.8916407765017179e+03 0 -1 -1
6432 40 9 0.0000000000000000e+00 2.9873546065375638e+02 2.5418062329508865e+02 2.8940197732643160e+03 0 -1 -1
6414 40 15 0.0000000000000000e+00 3.0734779100854695e+02 2.5440283931295775e+02 2.8920219209696047e+03 0 -1 -1
2551 16 18 0.0000000000000000e+00 2.9905196733536320e+02 2.5585396526765169e+02 2.9013440377375127e+03 -1 -1 -1
2550 16 6 0.0000000000000000e+00 2.9585237358521363e+02 2.5495169958475512e+02 2.8997975759636820e+03 -1 -1 -1
2549 16 18 0.0000000000000000e+00 2.9557757212454067e+02 2.5224093831933345e+02 2.9031105113342446e+03 -1 -1 -1
6416 40 2 0.0000000000000000e+00 3.0896151471327335e+02 2.5907742624367978e+02 2.8944627721986926e+03 0 -1 -1
6435 40 4 0.0000000000000000e+00 3.0230591365993564e+02 2.5037283624723733e+02 2.9015565780115303e+03 0 -1 -1
2552 16 15 0.0000000000000000e+00 3.0223412318236268e+02 2.5534982943969811e+02 2.9027583907840326e+03 -1 -1 -1
5075 32 2 0.0000000000000000e+00 3.1138859014062666e+02 2.6717876035643224e+02 2.9045818615751368e+03 -1 0 -1
2449 16 17 0.0000000000000000e+00 3.0170626990016370e+02 2.5161152584714779e+02 2.8875266184485445e+03 -1 -1 -1
2450 16 7 -1.0000000000000000e+00 3.0093309159770814e+02 2.4936782500078951e+02 2.8900655576338700e+03 -1 -1 -1
6412 40 9 0.0000000000000000e+00 3.1299837203369248e+02 2.5283617609453864e+02 2.8875540927750544e+03 0 -1 -1
6413 40 15 0.0000000000000000e+00 3.0985026837251189e+02 2.5308942326793246e+02 2.8898824879948638e+03 0 -1 -1
6434 40 15 0.0000000000000000e+00 3.0187631481061300e+02 2.5134931820442080e+02 2.8978586136453050e+03 0 -1 -1
2448 16 15 0.0000000000000000e+00 3.0107657779864860e+02 2.5273001707505196e+02 2.8841506577034165e+03 -1 -1 -1
7845 49 18 0.0000000000000000e+00 3.1577214066098725e+02 2.5266459689332737e+02 2.9024280379541774e+03 0 0 -1
6411 40 15 0.0000000000000000e+00 3.1419895941701543e+02 2.5089330077441232e+02 2.8851664096115137e+03 0 -1 -1
11318 70 4 0.0000000000000000e+00 2.4170726545397088e+02 2.7631635665573344e+02 2.8947434095014514e+03 1 -1 0
11313 70 9 0.0000000000000000e+00 2.5237371317182641e+02 2.6849238270341681e+02 2.8930705653164359e+03 1 -1 0
11315 70 4 0.0000000000000000e+00 2.4768151972520815e+02 2.6816236829678786e+02 2.8958060584994691e+03 1 -1 0
1573 10 18 0.0000000000000000e+00 2.4543765320482015e+02 2.8412222875647893e+02 2.8905900167153241e+03 0 -1 -1
11316 70 12 0.0000000000000000e+00 2.4721781884350892e+02 2.7185238967699399e+02 2.8956569986214436e+03 1 -1 0
1571 10 18 0.0000000000000000e+00 2.4061159153064224e+02 2.8666655233571845e+02 2.8903461182137657e+03 0 -1 -1
11945 74 7 -1.0000000000000000e+00 2.4603617953391409e+02 2.8636336644105762e+02 2.9017484426295323e+03 0 -2 0
11946 74 4 0.0000000000000000e+00 2.4604833157563726e+02 2.8221951426889268e+02 2.9016907909775559e+03 0 -2 0
11947 74 15 0.0000000000000000e+00 2.4601658074321085e+02 2.8031775458521395e+02 2.8973831420494225e+03 0 -2 0
1572 10 6 0.0000000000000000e+00 2.4449292224616204e+02 2.8788649945781111e+02 2.8893789972215350e+03 0 -1 -1
11317 70 15 0.0000000000000000e+00 2.4575558068520803e+02 2.7537599938122662e+02 2.8960884268448012e+03 1 -1 0
1555 10 12 0.0000000000000000e+00 2.5417867505152623e+02 2.8094357327344630e+02 2.8844874025685035e+03 0 -1 -1
11948 74 2 0.0000000000000000e+00 2.4977001826331983e+02 2.7958988455580499e+02 2.8963102583936698e+03 0 -2 0
11951 74 12 0.0000000000000000e+00 2.5885854755161921e+02 2.8158579135869354e+02 2.8990035075168616e+03 0 -2 0
11949 74 9 0.0000000000000000e+00 2.5185039320966573e+02 2.7922842068534430e+02 2.8996044479416878e+03 0 -2 0
1574 10 15 0.0000000000000000e+00 2.4488037729392923e+02 2.8500888275471652e+02 2.8941761680452742e+03 0 -1 -1
1587 10 15 0.0000000000000000e+00 2.5749396685678454e+02 2.8685213879864619e+02 2.9013048596003396e+03 0 -1 -1
1558 10 9 0.0000000000000000e+00 2.5263521048786961e+02 2.8120689365364234e+02 2.8911942125266419e+03 0 -1 -1
11950 74 2 0.0000000000000000e+00 2.5559304590015307e+02 2.7955450150374685e+02 2.9005094406832827e+03 0 -2 0
1588 10 15 0.0000000000000000e+00 2.6066002892666523e+02 2.8534150790932745e+02 2.9037939618433579e+03 0 -1 -1
1557 10 15 0.0000000000000000e+00 2.5629272829222066e+02 2.8299995050222952e+02 2.8904691504866887e+03 0 -1 -1
1556 10 15 0.0000000000000000e+00 2.5672246870637542e+02 2.8205233628846651e+02 2.8867734627832378e+03 0 -1 -1
1585 10 12 0.0000000000000000e+00 2.5822468359987857e+02 2.8694905679187872e+02 2.8951309141430020e+03 0 -1 -1
1559 10 2 0.0000000000000000e+00 2.4960250466096690e+02 2.8125476254702988e+02 2.8890980447302163e+03 0 -1 -1
11952 74 15 0.0000000000000000e+00 2.5868461618876233e+02 2.8096975542564235e+02 2.8955883036894902e+03 0 -2 0
11953 74 15 0.0000000000000000e+00 2.6210067888487998e+02 2.8034796560768729e+02 2.8938081249728580e+03 0 -2 0
11954 74 9 0.0000000000000000e+00 2.6486135615841062e+02 2.8068733613911775e+02 2.8909265242287825e+03 0 -2 0
11960 74 15 0.0000000000000000e+00 2.6006555363040263e+02 2.7142272162504668e+02 2.8864051245117821e+03 0 -2 0
11959 74 12 0.0000000000000000e+00 2.6090767346898571e+02 2.6963481613374466e+02 2.8900303774599565e+03 0 -2 0
11958 74 2 0.0000000000000000e+00 2.6509899849502551e+02 2.7006194428130698e+02 2.8901432037295299e+03 0 -2 0
1560 10 12 0.0000000000000000e+00 2.4723812891307654e+02 2.8067029559337180e+02 2.8854492968859176e+03 0 -1 -1
1584 10 15 0.0000000000000000e+00 2.5462651426836570e+02 2.8550536816238781e+02 2.8948661208709264e+03 0 -1 -1
11943 74 15 0.0000000000000000e+00 2.4998245027187494e+02 2.8810049655149470e+02 2.9047435755290126e+03 0 -2 0
1583 10 15 0.0000000000000000e+00 2.5196940455481797e+02 2.8478367576504115e+02 2.8956110052839772e+03 0 -1 -1
2821 18 9 0.0000000000000000e+00 2.4233067400688358e+02 2.7588438630205269e+02 2.9029074147007368e+03 0 -1 -1
11334 70 15 0.0000000000000000e+00 2.4029622758599999e+02 2.8243886628873958e+02 2.8989254748725593e+03 1 -1 0
1561 10 12 0.0000000000000000e+00 2.4613757887766897e+02 2.8368283316517346e+02 2.8842120669688193e+03 0 -1 -1
11319 70 18 0.0000000000000000e+00 2.4204527004993017e+02 2.7901079075107430e+02 2.8921482687480047e+03 1 -1 0
2791 18 12 0.0000000000000000e+00 2.7554085337773682e+02 2.6939148026176639e+02 2.8913677127350506e+03 0 -1 -1
2790 18 4 0.0000000000000000e+00 2.7685028814959918e+02 2.7007004644950780e+02 2.8943738299955944e+03 0 -1 -1
11957 74 9 0.0000000000000000e+00 2.6673340680881779e+02 2.7391405861947584e+02 2.8907933177263690e+03 0 -2 0
11956 74 15 0.0000000000000000e+00 2.6922324420296320e+02 2.7704611007237918e+02 2.8885798424248255e+03 0 -2 0
11955 74 15 0.0000000000000000e+00 2.6599345343766367e+02 2.7849243039601947e+02 2.8877759118916233e+03 0 -2 0
2789 18 18 0.0000000000000000e+00 2.7948344656899343e+02 2.7266549098328369e+02 2.8947316215035653e+03 0 -1 -1
2793 18 2 0.0000000000000000e+00 2.7176557316397071e+02 2.6868122976935746e+02 2.8955614386444076e+03 0 -1 -1
2787 18 6 0.0000000000000000e+00 2.7856232141364006e+02 2.7819393372966948e+02 2.8918067983517963e+03 0 -1 -1
8377 52 4 0.0000000000000000e+00 2.8496127535423147e+02 2.7544473659471146e+02 2.8870616984058497e+03 0 -1 -1
2788 18 9 0.0000000000000000e+00 2.8149332333712999e+02 2.7586739218638792e+02 2.8939337069238104e+03 0 -1 -1
8358 52 4 0.0000000000000000e+00 2.8830046005865904e+02 2.7812423594773549e+02 2.9001699035597871e+03 0 -1 -1
8359 52 7 -1.0000000000000000e+00 2.8607336838906485e+02 2.8000416431855615e+02 2.9026213357862189e+03 0 -1 -1
2786 18 2 0.0000000000000000e+00 2.7976786220864926e+02 2.7981937594423840e+02 2.8892738739966649e+03 0 -1 -1
2785 18 9 0.0000000000000000e+00 2.7966289923739470e+02 2.8286366943022182e+02 2.8872326501444077e+03 0 -1 -1
8360 52 4 0.0000000000000000e+00 2.8293888804181722e+02 2.8203125865712479e+02 2.9016251678447661e+03 0 -1 -1
8376 52 17 0.0000000000000000e+00 2.8678379860436854e+02 2.7744855768872594e+02 2.8845530943335111e+03 0 -1 -1
2784 18 15 0.0000000000000000e+00 2.8352440289737791e+02 2.8356399806254706e+02 2.8888716807779424e+03 0 -1 -1
2783 18 12 0.0000000000000000e+00 2.8348468817885168e+02 2.8383844315974244e+02 2.8924274230693964e+03 0 -1 -1
2782 18 4 0.0000000000000000e+00 2.8794355571955623e+02 2.8319849914254098e+02 2.8919465518222037e+03 0 -1 -1
2795 18 2 0.0000000000000000e+00 2.7504519580671001e+02 2.6914414186478331e+02 2.9022420385465171e+03 0 -1 -1
2799 18 12 0.0000000000000000e+00 2.7099000545151415e+02 2.7784798624722663e+02 2.9034531377795483e+03 0 -1 -1
8382 52 12 0.0000000000000000e+00 2.8881612459770719e+02 2.6836232435087038e+02 2.8974280534719287e+03 0 -1 -1
8357 52 15 0.0000000000000000e+00 2.8763445190182097e+02 2.7621119610816260e+02 2.8977026335201749e+03 0 -1 -1
8379 52 9 0.0000000000000000e+00 2.9059772614939931e+02 2.7301774546933768e+02 2.8889879438087501e+03 0 -1 -1
8378 52 2 0.0000000000000000e+00 2.8705422921873435e+02 2.7305142642715214e+02 2.8903238567828225e+03 0 -1 -1
8356 52 12 0.0000000000000000e+00 2.9036542188703118e+02 2.7745842649934713e+02 2.8951560728055597e+03 0 -1 -1
2781 18 6 0.0000000000000000e+00 2.8849461849240885e+02 2.8265370792547378e+02 2.8959513483625178e+03 0 -1 -1
2780 18 12 0.0000000000000000e+00 2.9071052291164119e+02 2.8339113412091348e+02 2.8990826076377948e+03 0 -1 -1
8361 52 15 0.0000000000000000e+00 2.8264623764885198e+02 2.8602412493677144e+02 2.9024424461144040e+03 0 -1 -1
2798 18 12 0.0000000000000000e+00 2.7329669206972693e+02 2.7405357798220030e+02 2.9030785896651960e+03 0 -1 -1
8373 52 12 0.0000000000000000e+00 2.8780986999872499e+02 2.8564709792110153e+02 2.8848154635129868e+03 0 -1 -1
8380 52 2 0.0000000000000000e+00 2.9099184485587381e+02 2.7223657249813266e+02 2.8929267062715739e+03 0 -1 -1
8381 52 4 0.0000000000000000e+00 2.9110473588870548e+02 2.7103401368690606e+02 2.8968840501868781e+03 0 -1 -1
207 2 15 0.0000000000000000e+00 3.1367865436162072e+02 2.8329201388058505e+02 2.8951056734085828e+03 -1 -2 -1
8355 52 15 0.0000000000000000e+00 2.9330836285890507e+02 2.7795328443443640e+02 2.8973783803596998e+03 0 -1 -1
8475 52 17 0.0000000000000000e+00 3.0887069303147473e+02 2.7856478290752182e+02 2.8907857101143886e+03 0 -1 -1
8473 52 12 0.0000000000000000e+00 3.0448023732948326e+02 2.7574775385324625e+02 2.8927548962388009e+03 0 -1 -1
8350 52 15 0.0000000000000000e+00 2.9632972356415723e+02 2.7538877342841539e+02 2.8873383703394661e+03 0 -1 -1
8354 52 9 0.0000000000000000e+00 2.9595873672851644e+02 2.7661637522508653e+02 2.9000205159249922e+03 0 -1 -1
8476 52 15 0.0000000000000000e+00 3.1180117162125174e+02 2.7552849175870608e+02 2.8890563321677741e+03 0 -1 -1
8474 52 9 0.0000000000000000e+00 3.0583758390269713e+02 2.7609115494980830e+02 2.8893639138515632e+03 0 -1 -1
8352 52 15 0.0000000000000000e+00 2.9893077625984779e+02 2.7807316969301428e+02 2.8934777939192577e+03 0 -1 -1
8353 52 2 0.0000000000000000e+00 2.9812244345599652e+02 2.7558567590911520e+02 2.8968324364858495e+03 0 -1 -1
8349 52 12 0.0000000000000000e+00 2.9452892970459396e+02 2.7700482786982172e+02 2.8842063916447278e+03 0 -1 -1
8351 52 9 0.0000000000000000e+00 2.9894510455559919e+02 2.7674649980789570e+02 2.8902925308559088e+03 0 -1 -1
8472 52 17 0.0000000000000000e+00 3.0596297586004158e+02 2.7557481219280589e+02 2.8960667483487250e+03 0 -1 -1
5069 32 6 0.0000000000000000e+00 3.1184374089070866e+02 2.8315663071486478e+02 2.9023590980435897e+03 -1 0 -1
8469 52 2 0.0000000000000000e+00 3.0571752331650436e+02 2.8000088126366222e+02 2.9036311557032509e+03 0 -1 -1
208 2 4 0.0000000000000000e+00 3.0988703535815512e+02 2.8425606115838650e+02 2.8962211950521978e+03 -1 -2 -1
8344 52 12 0.0000000000000000e+00 3.0449832376198202e+02 2.8180100706388521e+02 2.8877624517515223e+03 0 -1 -1
2779 18 12 0.0000000000000000e+00 2.9318869987312013e+02 2.8284304134060812e+02 2.9018592036658306e+03 0 -1 -1
5074 32 18 0.0000000000000000e+00 3.0835108991694659e+02 2.6933112421878252e+02 2.9033938951160608e+03 -1 0 -1
2778 18 4 0.0000000000000000e+00 2.9208663252737506e+02 2.8127464305383899e+02 2.9048420260870448e+03 0 -1 -1
209 2 7 -1.0000000000000000e+00 3.0738082692443004e+02 2.8687250682816250e+02 2.8959742481213311e+03 -1 -2 -1
5073 32 12 0.0000000000000000e+00 3.0653263608097086e+02 2.7187948224426350e+02 2.9047250660931577e+03 -1 0 -1
8466 52 12 0.0000000000000000e+00 3.0056373920147553e+02 2.8371824467395959e+02 2.9039494976419378e+03 0 -1 -1
8343 52 15 0.0000000000000000e+00 3.0153541078954169e+02 2.8472323159343790e+02 2.8880909878940206e+03 0 -1 -1
206 2 12 0.0000000000000000e+00 3.1577998409059944e+02 2.8604868539774230e+02 2.8961735418450280e+03 -1 -2 -1
8342 52 15 0.0000000000000000e+00 3.0413174584781092e+02 2.8682636219408101e+02 2.8899176694344555e+03 0 -1 -1
8345 52 18 0.0000000000000000e+00 3.0357563118302329e+02 2.7944544213075886e+02 2.8845362706088558e+03 0 -1 -1
8341 52 12 0.0000000000000000e+00 3.0779559118147876e+02 2.8721592422708545e+02 2.8880178480272484e+03 0 -1 -1
8471 52 12 0.0000000000000000e+00 3.0801715027448165e+02 2.7901128047877279e+02 2.8980505595052773e+03 0 -1 -1
5068 32 2 0.0000000000000000e+00 3.0851926902853086e+02 2.8487845535767462e+02 2.9029527933677623e+03 -1 0 -1
8470 52 12 0.0000000000000000e+00 3.0483412708764041e+02 2.7981792240999255e+02 2.9003275947514389e+03 0 -1 -1
5067 32 9 0.0000000000000000e+00 3.1026388834441531e+02 2.8819754164511863e+02 2.9012120499111179e+03 -1 0 -1
8465 52 18 0.0000000000000000e+00 2.9705302759915526e+02 2.8655882353325990e+02 2.9036186557885326e+03 0 -1 -1
7532 47 2 0.0000000000000000e+00 3.1102176479750341e+02 2.8321726547370230e+02 2.8843332815200206e+03 -1 0 -1
7545 47 4 0.0000000000000000e+00 3.1594580542469782e+02 2.7931083427205294e+02 2.8999628310351090e+03 -1 0 -1
11917 74 18 0.0000000000000000e+00 2.4021973497643503e+02 3.0597029043169607e+02 2.9021320106089688e+03 0 -2 0
1586 10 15 0.0000000000000000e+00 2.5893975723827674e+02 2.8900890869823616e+02 2.8979996647659068e+03 0 -1 -1
11944 74 4 0.0000000000000000e+00 2.4727819704952481e+02 2.8903245522845782e+02 2.9036066256429881e+03 0 -2 0
1575 10 15 0.0000000000000000e+00 2.4581163807616372e+02 2.8864424092561438e+02 2.8959026836209196e+03 0 -1 -1
1576 10 4 0.0000000000000000e+00 2.4260816517699024e+02 2.8988812844062431e+02 2.8968698240665567e+03 0 -1 -1
1577 10 15 0.0000000000000000e+00 2.4219220189952668e+02 2.9383496628281353e+02 2.8953194220859682e+03 0 -1 -1
11979 74 2 0.0000000000000000e+00 2.5302386431677348e+02 3.0223322895395324e+02 2.8938337884022349e+03 0 -2 0
11918 74 4 0.0000000000000000e+00 2.4025271716515246e+02 3.0221340623073218e+02 2.9031909926376575e+03 0 -2 0
11935 74 12 0.0000000000000000e+00 2.4475166725433382e+02 2.9611846641481827e+02 2.9032611566122973e+03 0 -2 0
1580 10 9 0.0000000000000000e+00 2.4891015802669293e+02 2.9567450251917842e+02 2.8959673982237814e+03 0 -1 -1
1581 10 2 0.0000000000000000e+00 2.4935586897436175e+02 2.9210886389419289e+02 2.8973328976915723e+03 0 -1 -1
1579 10 15 0.0000000000000000e+00 2.4692771010043435e+02 2.9818642383029339e+02 2.8933541081997892e+03 0 -1 -1
1578 10 2 0.0000000000000000e+00 2.4368978002738970e+02 2.9587396633139389e+02 2.8933271229428469e+03 0 -1 -1
1582 10 15 0.0000000000000000e+00 2.5114580884184898e+02 2.8872213350223336e+02 2.8971535316448803e+03 0 -1 -1
11978 74 2 0.0000000000000000e+00 2.5469083400258549e+02 3.0141518987056003e+02 2.8911359331789272e+03 0 -2 0
11981 74 2 0.0000000000000000e+00 2.5333292794477489e+02 3.0310591016852914e+02 2.9003519662858835e+03 0 -2 0
11982 74 15 0.0000000000000000e+00 2.5321217116980375e+02 3.0127741717952091e+02 2.9045753393460163e+03 0 -2 0
11932 74 9 0.0000000000000000e+00 2.4773099301237008e+02 3.0474858857060900e+02 2.9004412342801852e+03 0 -2 0
11931 74 18 0.0000000000000000e+00 2.4895825836855551e+02 3.0786898464054303e+02 2.9014907622782948e+03 0 -2 0
2740 17 12 0.0000000000000000e+00 2.4293677006830271e+02 3.0477125590656419e+02 2.8895443537425740e+03 -1 0 -1
11977 74 4 0.0000000000000000e+00 2.5581709920696821e+02 3.0232383728034972e+02 2.8876558079908673e+03 0 -2 0
4406 28 7 -1.0000000000000000e+00 2.6461743117823437e+02 2.9666088221460802e+02 2.8950045409383429e+03 0 -1 -1
4402 28 1 0.0000000000000000e+00 2.5764732093938073e+02 2.9376793533936620e+02 2.8940633422033875e+03 0 -1 -1
4405 28 17 0.0000000000000000e+00 2.6311316291423367e+02 2.9381696858962857e+02 2.8965669699251575e+03 0 -1 -1
8448 52 15 0.0000000000000000e+00 2.6117072716587359e+02 3.0222038121420923e+02 2.9000372096724864e+03 0 -1 -1
11980 74 9 0.0000000000000000e+00 2.5343733392616642e+02 3.0446609477352308e+02 2.8965259574250495e+03 0 -2 0
8447 52 18 0.0000000000000000e+00 2.5970031165123891e+02 3.0396790349170305e+02 2.9026630679585655e+03 0 -1 -1
4413 28 12 0.0000000000000000e+00 2.6526485823582584e+02 3.0669588623172348e+02 2.8880137514376861e+03 0 -1 -1
11976 74 15 0.0000000000000000e+00 2.5278773790203834e+02 3.0493066171087429e+02 2.8864572683750621e+03 0 -2 0
11934 74 12 0.0000000000000000e+00 2.4448330154580535e+02 2.9873952034385417e+02 2.9002711812347429e+03 0 -2 0
4415 28 9 0.0000000000000000e+00 2.5948620558712349e+02 3.0810002282030996e+02 2.8903472509851917e+03 0 -1 -1
2732 17 12 0.0000000000000000e+00 2.4919993847772238e+02 2.9304044846329958e+02 2.8840190250080341e+03 -1 0 -1
4403 28 6 0.0000000000000000e+00 2.5784627734257037e+02 2.9453805624511608e+02 2.8986203974965802e+03 0 -1 -1
4404 28 15 0.0000000000000000e+00 2.6111468188978415e+02 2.9632759541479209e+02 2.8986975978301493e+03 0 -1 -1
8449 52 9 0.0000000000000000e+00 2.6455205778496958e+02 3.0229258656109181e+02 2.8991818207636352e+03 0 -1 -1
4408 28 4 0.0000000000000000e+00 2.6461639082465632e+02 2.9778168278278775e+02 2.8899829821754711e+03 0 -1 -1
4407 28 9 0.0000000000000000e+00 2.6249530971555640e+02 2.9880679948211036e+02 2.8930150665898927e+03 0 -1 -1
8432 52 15 0.0000000000000000e+00 2.6497608742597367e+02 2.9454667326174103e+02 2.9039253469513410e+03 0 -1 -1
2730 17 9 0.0000000000000000e+00 2.5715296205789042e+02 2.9221236243688855e+02 2.8860458771478261e+03 -1 0 -1
2741 17 12 0.0000000000000000e+00 2.4574116877891868e+02 3.0235295440566443e+02 2.8897945505323150e+03 -1 0 -1
2742 17 18 0.0000000000000000e+00 2.4884277038261763e+02 3.0503586659660698e+02 2.8914886931309006e+03 -1 0 -1
2743 17 15 0.0000000000000000e+00 2.4751297551575419e+02 3.0789188134878373e+02 2.8930426357822148e+03 -1 0 -1
8446 52 12 0.0000000000000000e+00 2.6126873942452983e+02 3.0740989229953493e+02 2.9035405475267912e+03 0 -1 -1
2739 17 15 0.0000000000000000e+00 2.4218384283853183e+02 3.0265295896794368e+02 2.8861157602447001e+03 -1 0 -1
2731 17 2 0.0000000000000000e+00 2.5300471329456710e+02 2.9358985910916431e+02 2.8857868732077491e+03 -1 0 -1
11933 74 2 0.0000000000000000e+00 2.4775424490325776e+02 3.0038243197557478e+02 2.9021540081412631e+03 0 -2 0
4421 28 12 0.0000000000000000e+00 2.4617663134674473e+02 3.0682619363020825e+02 2.8841003976597822e+03 0 -1 -1
2729 17 15 0.0000000000000000e+00 2.5517800772233105e+02 2.8941183028312167e+02 2.8841263805183389e+03 -1 0 -1
11974 74 9 0.0000000000000000e+00 2.5896921661139527e+02 3.0613207566649066e+02 2.8843440835108740e+03 0 -2 0
4409 28 12 0.0000000000000000e+00 2.6863583547358223e+02 2.9982014700652098e+02 2.8891298454397165e+03 0 -1 -1
4412 28 4 0.0000000000000000e+00 2.6583803512042829e+02 3.0624035542686352e+02 2.8841267985774434e+03 0 -1 -1
8369 52 15 0.0000000000000000e+00 2.8290352047734547e+02 2.9485068552867108e+02 2.8886728726384331e+03 0 -1 -1
8362 52 2 0.0000000000000000e+00 2.8140313337811273e+02 2.8947399189788138e+02 2.9003309286035319e+03 0 -1 -1
8363 52 9 0.0000000000000000e+00 2.7925361037843732e+02 2.9277871849588826e+02 2.8983804685791938e+03 0 -1 -1
8364 52 2 0.0000000000000000e+00 2.7842838240442688e+02 2.9617420589825292e+02 2.8965093746572679e+03 0 -1 -1
8365 52 12 0.0000000000000000e+00 2.7980945935076335e+02 2.9773369374991216e+02 2.8931165443504324e+03 0 -1 -1
8450 52 2 0.0000000000000000e+00 2.6783984737181277e+02 3.0141077069834688e+02 2.8984297059186893e+03 0 -1 -1
296 2 12 0.0000000000000000e+00 2.8906263024573457e+02 3.0209962329945017e+02 2.8958004912987185e+03 -1 -2 -1
8366 52 15 0.0000000000000000e+00 2.8086441689750592e+02 3.0107815182259196e+02 2.8920734062928245e+03 0 -1 -1
298 2 15 0.0000000000000000e+00 2.8911757547849578e+02 3.0637892442724211e+02 2.9004709631386736e+03 -1 -2 -1
8370 52 15 0.0000000000000000e+00 2.8348149601805733e+02 2.9050915403664982e+02 2.8880027621193167e+03 0 -1 -1
8367 52 15 0.0000000000000000e+00 2.8413714330026409e+02 3.0036864561522680e+02 2.8898514934968853e+03 0 -1 -1
8454 52 12 0.0000000000000000e+00 2.7626652051393467e+02 3.0192702328272452e+02 2.9018939241725229e+03 0 -1 -1
295 2 12 0.0000000000000000e+00 2.8795295711451524e+02 3.0493132104870887e+02 2.8943842938951420e+03 -1 -2 -1
8368 52 9 0.0000000000000000e+00 2.8545487604257841e+02 2.9649383373206251e+02 2.8918667687221068e+03 0 -1 -1
8431 52 12 0.0000000000000000e+00 2.6825822717436370e+02 2.9538957677958126e+02 2.9014442439470567e+03 0 -1 -1
8455 52 15 0.0000000000000000e+00 2.7856793774298632e+02 3.0369487154428242e+02 2.9041437007285776e+03 0 -1 -1
299 2 9 0.0000000000000000e+00 2.8579261434607423e+02 3.0567437737418413e+02 2.9013562747368655e+03 -1 -2 -1
300 2 2 0.0000000000000000e+00 2.8506654356508454e+02 3.0748889004245035e+02 2.9048338011143096e+03 -1 -2 -1
294 2 15 0.0000000000000000e+00 2.8901125934388722e+02 3.0613131037610202e+02 2.8911059060208822e+03 -1 -2 -1
8371 52 9 0.0000000000000000e+00 2.8703650353867386e+02 2.9025305986373354e+02 2.8890657785423086e+03 0 -1 -1
8372 52 2 0.0000000000000000e+00 2.8830989989008600e+02 2.8978457262672100e+02 2.8856182725763751e+03 0 -1 -1
8451 52 2 0.0000000000000000e+00 2.6970015547951613e+02 2.9936915121007462e+02 2.8958843251370322e+03 0 -1 -1