# Multiprotein complexes
units       real
dimension   3
boundary    p p p
atom_style  full

bond_style  harmonic
angle_style harmonic
dielectric  80.0

pair_style hybrid/overlay  ljlambda 0.1 0.0 35.0 lj/cut 10.0
read_data DC_16x125FUS.lmp
bond_coeff          1     2.39      3.81 
bond_coeff          2     2.39      5.00 
angle_coeff         1     0.0001      180
angle_coeff         2     5          180



# pairwise coefficients
#                  type1  type2 epsilon sigma  lambda  lj_cut  coulm_cut
pair_coeff   *   * ljlambda   0.000   0.000  0.0000  0.000  0.000
pair_coeff  1   1  ljlambda 0.200000  6.180  0.837838  18.540  0.000
pair_coeff  1   2  ljlambda 0.200000  5.340  0.743243  16.020  0.000
pair_coeff  1   3  ljlambda 0.200000  6.270  0.675676  18.810  0.000
pair_coeff  1   4  ljlambda 0.200000  5.900  0.756757  17.700  0.000
pair_coeff  1   5  ljlambda 0.200000  6.370  0.418919  19.110  0.000
pair_coeff  1   6  ljlambda 0.200000  5.610  0.783784  16.830  0.000
pair_coeff  1   7  ljlambda 0.200000  5.880  0.608108  17.640  0.000
pair_coeff  1   8  ljlambda 0.200000  6.050  0.648649  18.150  0.000
pair_coeff  1   9  ljlambda 0.200000  6.320  0.851351  18.960  0.000
pair_coeff  1   10 ljlambda 0.200000  6.020  0.864865  18.060  0.000
pair_coeff  1   11 ljlambda 0.200000  6.180  0.905406  18.540  0.000
pair_coeff  1   12 ljlambda 0.200000  6.100  0.675676  18.300  0.000
pair_coeff  1   13 ljlambda 0.200000  6.480  0.891892  19.440  0.000
pair_coeff  1   14 ljlambda 0.200000  6.270  0.918919  18.810  0.000
pair_coeff  1   15 ljlambda 0.200000  5.680  0.716217  17.040  0.000
pair_coeff  1   16 ljlambda 0.200000  6.130  0.675676  18.390  0.000
pair_coeff  1   17 ljlambda 0.200000  5.930  0.635135  17.790  0.000
pair_coeff  1   18 ljlambda 0.200000  5.870  0.918919  17.610  0.000
pair_coeff  1   19 ljlambda 0.200000  5.830  0.716217  17.490  0.000
pair_coeff  1   20 ljlambda 0.200000  6.180  0.905406  18.540  0.000
pair_coeff  1   21 ljlambda 0.200000  6.180  0.586487  18.540  0.000
pair_coeff  1   22 ljlambda 0.200000  5.340  0.52027   16.020  0.000
pair_coeff  1   23 ljlambda 0.200000  6.270  0.472973  18.810  0.000
pair_coeff  1   24 ljlambda 0.200000  5.900  0.52973   17.700  0.000
pair_coeff  1   25 ljlambda 0.200000  6.370  0.293243  19.110  0.000
pair_coeff  1   26 ljlambda 0.200000  5.610  0.548649  16.830  0.000
pair_coeff  1   27 ljlambda 0.200000  5.880  0.425676  17.640  0.000
pair_coeff  1   28 ljlambda 0.200000  6.050  0.454054  18.150  0.000
pair_coeff  1   29 ljlambda 0.200000  6.320  0.595946  18.960  0.000
pair_coeff  1   30 ljlambda 0.200000  6.020  0.605405  18.060  0.000
pair_coeff  1   31 ljlambda 0.200000  6.180  0.633784  18.540  0.000
pair_coeff  1   32 ljlambda 0.200000  6.100  0.472973  18.300  0.000
pair_coeff  1   33 ljlambda 0.200000  6.480  0.624324  19.440  0.000
pair_coeff  1   34 ljlambda 0.200000  6.270  0.643243  18.810  0.000
pair_coeff  1   35 ljlambda 0.200000  5.680  0.501352  17.040  0.000
pair_coeff  1   36 ljlambda 0.200000  6.130  0.472973  18.390  0.000
pair_coeff  1   37 ljlambda 0.200000  5.930  0.444594  17.790  0.000
pair_coeff  1   38 ljlambda 0.200000  5.870  0.643243  17.610  0.000
pair_coeff  1   39 ljlambda 0.200000  5.830  0.501352  17.490  0.000
pair_coeff  1   40 ljlambda 0.200000  6.180  0.633784  18.540  0.000
pair_coeff  2   2  ljlambda 0.200000  4.500  0.648649  13.500  0.000
pair_coeff  2   3  ljlambda 0.200000  5.430  0.581082  16.290  0.000
pair_coeff  2   4  ljlambda 0.200000  5.060  0.662162  15.180  0.000
pair_coeff  2   5  ljlambda 0.200000  5.530  0.324324  16.590  0.000
pair_coeff  2   6  ljlambda 0.200000  4.770  0.689189  14.310  0.000
pair_coeff  2   7  ljlambda 0.200000  5.040  0.513514  15.120  0.000
pair_coeff  2   8  ljlambda 0.200000  5.210  0.554054  15.630  0.000
pair_coeff  2   9  ljlambda 0.200000  5.480  0.756757  16.440  0.000
pair_coeff  2   10 ljlambda 0.200000  5.180  0.770270  15.540  0.000
pair_coeff  2   11 ljlambda 0.200000  5.340  0.810811  16.020  0.000
pair_coeff  2   12 ljlambda 0.200000  5.260  0.581082  15.780  0.000
pair_coeff  2   13 ljlambda 0.200000  5.640  0.797297  16.920  0.000
pair_coeff  2   14 ljlambda 0.200000  5.430  0.824324  16.290  0.000
pair_coeff  2   15 ljlambda 0.200000  4.840  0.621622  14.520  0.000
pair_coeff  2   16 ljlambda 0.200000  5.290  0.581082  15.870  0.000
pair_coeff  2   17 ljlambda 0.200000  5.090  0.540540  15.270  0.000
pair_coeff  2   18 ljlambda 0.200000  5.030  0.824324  15.090  0.000
pair_coeff  2   19 ljlambda 0.200000  4.990  0.621622  14.970  0.000
pair_coeff  2   20 ljlambda 0.200000  5.340  0.810811  16.020  0.000
pair_coeff  2   21 ljlambda 0.200000  5.340  0.52027   16.020  0.000
pair_coeff  2   22 ljlambda 0.200000  4.500  0.454054  13.500  0.000
pair_coeff  2   23 ljlambda 0.200000  5.430  0.406757  16.290  0.000
pair_coeff  2   24 ljlambda 0.200000  5.060  0.463513  15.180  0.000
pair_coeff  2   25 ljlambda 0.200000  5.530  0.227027  16.590  0.000
pair_coeff  2   26 ljlambda 0.200000  4.770  0.482432  14.310  0.000
pair_coeff  2   27 ljlambda 0.200000  5.040  0.35946   15.120  0.000
pair_coeff  2   28 ljlambda 0.200000  5.210  0.387838  15.630  0.000
pair_coeff  2   29 ljlambda 0.200000  5.480  0.52973   16.440  0.000
pair_coeff  2   30 ljlambda 0.200000  5.180  0.539189  15.540  0.000
pair_coeff  2   31 ljlambda 0.200000  5.340  0.567568  16.020  0.000
pair_coeff  2   32 ljlambda 0.200000  5.260  0.406757  15.780  0.000
pair_coeff  2   33 ljlambda 0.200000  5.640  0.558108  16.920  0.000
pair_coeff  2   34 ljlambda 0.200000  5.430  0.577027  16.290  0.000
pair_coeff  2   35 ljlambda 0.200000  4.840  0.435135  14.520  0.000
pair_coeff  2   36 ljlambda 0.200000  5.290  0.406757  15.870  0.000
pair_coeff  2   37 ljlambda 0.200000  5.090  0.378378  15.270  0.000
pair_coeff  2   38 ljlambda 0.200000  5.030  0.577027  15.090  0.000
pair_coeff  2   39 ljlambda 0.200000  4.990  0.435135  14.970  0.000
pair_coeff  2   40 ljlambda 0.200000  5.340  0.567568  16.020  0.000
pair_coeff  3   3  ljlambda 0.200000  6.360  0.513514  19.080  35.000
pair_coeff  3   4  ljlambda 0.200000  5.990  0.594595  17.970  0.000
pair_coeff  3   5  ljlambda 0.200000  6.460  0.256757  19.380  35.000
pair_coeff  3   6  ljlambda 0.200000  5.700  0.621622  17.100  0.000
pair_coeff  3   7  ljlambda 0.200000  5.970  0.445946  17.910  35.000
pair_coeff  3   8  ljlambda 0.200000  6.140  0.486486  18.420  35.000
pair_coeff  3   9  ljlambda 0.200000  6.410  0.689189  19.230  0.000
pair_coeff  3   10 ljlambda 0.200000  6.110  0.702703  18.330  0.000
pair_coeff  3   11 ljlambda 0.200000  6.270  0.743243  18.810  0.000
pair_coeff  3   12 ljlambda 0.200000  6.190  0.513514  18.570  0.000
pair_coeff  3   13 ljlambda 0.200000  6.570  0.729730  19.710  0.000
pair_coeff  3   14 ljlambda 0.200000  6.360  0.756757  19.080  0.000
pair_coeff  3   15 ljlambda 0.200000  5.770  0.554054  17.310  0.000
pair_coeff  3   16 ljlambda 0.200000  6.220  0.513514  18.660  35.000
pair_coeff  3   17 ljlambda 0.200000  6.020  0.472973  18.060  0.000
pair_coeff  3   18 ljlambda 0.200000  5.960  0.756757  17.880  0.000
pair_coeff  3   19 ljlambda 0.200000  5.920  0.554054  17.760  0.000
pair_coeff  3   20 ljlambda 0.200000  6.270  0.743243  18.810  0.000
pair_coeff  3   21 ljlambda 0.200000  6.270  0.472973  18.810  0.000
pair_coeff  3   22 ljlambda 0.200000  5.430  0.406757  16.290  0.000
pair_coeff  3   23 ljlambda 0.200000  6.360  0.35946   19.080  35.000
pair_coeff  3   24 ljlambda 0.200000  5.990  0.416216  17.970  0.000
pair_coeff  3   25 ljlambda 0.200000  6.460  0.17973   19.380  35.000
pair_coeff  3   26 ljlambda 0.200000  5.700  0.435135  17.100  0.000
pair_coeff  3   27 ljlambda 0.200000  5.970  0.312162  17.910  35.000
pair_coeff  3   28 ljlambda 0.200000  6.140  0.34054   18.420  35.000
pair_coeff  3   29 ljlambda 0.200000  6.410  0.482432  19.230  0.000
pair_coeff  3   30 ljlambda 0.200000  6.110  0.491892  18.330  0.000
pair_coeff  3   31 ljlambda 0.200000  6.270  0.52027   18.810  0.000
pair_coeff  3   32 ljlambda 0.200000  6.190  0.35946   18.570  0.000
pair_coeff  3   33 ljlambda 0.200000  6.570  0.510811  19.710  0.000
pair_coeff  3   34 ljlambda 0.200000  6.360  0.52973   19.080  0.000
pair_coeff  3   35 ljlambda 0.200000  5.770  0.387838  17.310  0.000
pair_coeff  3   36 ljlambda 0.200000  6.220  0.35946   18.660  35.000
pair_coeff  3   37 ljlambda 0.200000  6.020  0.331081  18.060  0.000
pair_coeff  3   38 ljlambda 0.200000  5.960  0.52973   17.880  0.000
pair_coeff  3   39 ljlambda 0.200000  5.920  0.387838  17.760  0.000
pair_coeff  3   40 ljlambda 0.200000  6.270  0.52027   18.810  0.000
pair_coeff  4   4  ljlambda 0.200000  5.620  0.675676  16.860  0.000
pair_coeff  4   5  ljlambda 0.200000  6.090  0.337838  18.270  0.000
pair_coeff  4   6  ljlambda 0.200000  5.330  0.702703  15.990  0.000
pair_coeff  4   7  ljlambda 0.200000  5.600  0.527027  16.800  0.000
pair_coeff  4   8  ljlambda 0.200000  5.770  0.567567  17.310  0.000
pair_coeff  4   9  ljlambda 0.200000  6.040  0.770270  18.120  0.000
pair_coeff  4   10 ljlambda 0.200000  5.740  0.783784  17.220  0.000
pair_coeff  4   11 ljlambda 0.200000  5.900  0.824324  17.700  0.000
pair_coeff  4   12 ljlambda 0.200000  5.820  0.594595  17.460  0.000
pair_coeff  4   13 ljlambda 0.200000  6.200  0.810811  18.600  0.000
pair_coeff  4   14 ljlambda 0.200000  5.990  0.837838  17.970  0.000
pair_coeff  4   15 ljlambda 0.200000  5.400  0.635136  16.200  0.000
pair_coeff  4   16 ljlambda 0.200000  5.850  0.594595  17.550  0.000
pair_coeff  4   17 ljlambda 0.200000  5.650  0.554054  16.950  0.000
pair_coeff  4   18 ljlambda 0.200000  5.590  0.837838  16.770  0.000
pair_coeff  4   19 ljlambda 0.200000  5.550  0.635136  16.650  0.000
pair_coeff  4   20 ljlambda 0.200000  5.900  0.824324  17.700  0.000
pair_coeff  4   21 ljlambda 0.200000  5.900  0.52973   17.700  0.000
pair_coeff  4   22 ljlambda 0.200000  5.060  0.463513  15.180  0.000
pair_coeff  4   23 ljlambda 0.200000  5.990  0.416216  17.970  0.000
pair_coeff  4   24 ljlambda 0.200000  5.620  0.472973  16.860  0.000
pair_coeff  4   25 ljlambda 0.200000  6.090  0.236487  18.270  0.000
pair_coeff  4   26 ljlambda 0.200000  5.330  0.491892  15.990  0.000
pair_coeff  4   27 ljlambda 0.200000  5.600  0.368919  16.800  0.000
pair_coeff  4   28 ljlambda 0.200000  5.770  0.397297  17.310  0.000
pair_coeff  4   29 ljlambda 0.200000  6.040  0.539189  18.120  0.000
pair_coeff  4   30 ljlambda 0.200000  5.740  0.548649  17.220  0.000
pair_coeff  4   31 ljlambda 0.200000  5.900  0.577027  17.700  0.000
pair_coeff  4   32 ljlambda 0.200000  5.820  0.416216  17.460  0.000
pair_coeff  4   33 ljlambda 0.200000  6.200  0.567568  18.600  0.000
pair_coeff  4   34 ljlambda 0.200000  5.990  0.586487  17.970  0.000
pair_coeff  4   35 ljlambda 0.200000  5.400  0.444595  16.200  0.000
pair_coeff  4   36 ljlambda 0.200000  5.850  0.416216  17.550  0.000
pair_coeff  4   37 ljlambda 0.200000  5.650  0.387838  16.950  0.000
pair_coeff  4   38 ljlambda 0.200000  5.590  0.586487  16.770  0.000
pair_coeff  4   39 ljlambda 0.200000  5.550  0.444595  16.650  0.000
pair_coeff  4   40 ljlambda 0.200000  5.900  0.577027  17.700  0.000
pair_coeff  5   5  ljlambda 0.200000  6.560  0.000000  7.363   35.000
pair_coeff  5   6  ljlambda 0.200000  5.800  0.364865  17.400  0.000
pair_coeff  5   7  ljlambda 0.200000  6.070  0.189189  18.210  35.000
pair_coeff  5   8  ljlambda 0.200000  6.240  0.229730  18.720  35.000
pair_coeff  5   9  ljlambda 0.200000  6.510  0.432433  19.530  0.000
pair_coeff  5   10 ljlambda 0.200000  6.210  0.445946  18.630  0.000
pair_coeff  5   11 ljlambda 0.200000  6.370  0.486486  19.110  0.000
pair_coeff  5   12 ljlambda 0.200000  6.290  0.256757  18.870  0.000
pair_coeff  5   13 ljlambda 0.200000  6.670  0.472973  20.010  0.000
pair_coeff  5   14 ljlambda 0.200000  6.460  0.500000  19.380  0.000
pair_coeff  5   15 ljlambda 0.200000  5.870  0.297298  17.610  0.000
pair_coeff  5   16 ljlambda 0.200000  6.320  0.256757  18.960  35.000
pair_coeff  5   17 ljlambda 0.200000  6.120  0.216216  18.360  0.000
pair_coeff  5   18 ljlambda 0.200000  6.060  0.500000  18.180  0.000
pair_coeff  5   19 ljlambda 0.200000  6.020  0.297298  18.060  0.000
pair_coeff  5   20 ljlambda 0.200000  6.370  0.486486  19.110  0.000
pair_coeff  5   21 ljlambda 0.200000  6.370  0.293243  19.110  0.000
pair_coeff  5   22 ljlambda 0.200000  5.530  0.227027  16.590  0.000
pair_coeff  5   23 ljlambda 0.200000  6.460  0.17973   19.380  35.000
pair_coeff  5   24 ljlambda 0.200000  6.090  0.236487  18.270  0.000
pair_coeff  5   25 ljlambda 0.200000  6.560  0         7.363   35.000
pair_coeff  5   26 ljlambda 0.200000  5.800  0.255406  17.400  0.000
pair_coeff  5   27 ljlambda 0.200000  6.070  0.132432  18.210  35.000
pair_coeff  5   28 ljlambda 0.200000  6.240  0.16079   18.720  35.000
pair_coeff  5   29 ljlambda 0.200000  6.510  0.302703  19.530  0.000
pair_coeff  5   30 ljlambda 0.200000  6.210  0.312162  18.630  0.000
pair_coeff  5   31 ljlambda 0.200000  6.370  0.34054   19.110  0.000
pair_coeff  5   32 ljlambda 0.200000  6.290  0.17973   18.870  0.000
pair_coeff  5   33 ljlambda 0.200000  6.670  0.331081  20.010  0.000
pair_coeff  5   34 ljlambda 0.200000  6.460  0.35      19.380  0.000
pair_coeff  5   35 ljlambda 0.200000  5.870  0.208109  17.610  0.000
pair_coeff  5   36 ljlambda 0.200000  6.320  0.17973   18.960  35.000
pair_coeff  5   37 ljlambda 0.200000  6.120  0.151351  18.360  0.000
pair_coeff  5   38 ljlambda 0.200000  6.060  0.35      18.180  0.000
pair_coeff  5   39 ljlambda 0.200000  6.020  0.208109  18.060  0.000
pair_coeff  5   40 ljlambda 0.200000  6.370  0.34054   19.110  0.000
pair_coeff  6   6  ljlambda 0.200000  5.040  0.729730  15.120  0.000
pair_coeff  6   7  ljlambda 0.200000  5.310  0.554054  15.930  0.000
pair_coeff  6   8  ljlambda 0.200000  5.480  0.594594  16.440  0.000
pair_coeff  6   9  ljlambda 0.200000  5.750  0.797297  17.250  0.000
pair_coeff  6   10 ljlambda 0.200000  5.450  0.810811  16.350  0.000
pair_coeff  6   11 ljlambda 0.200000  5.610  0.851351  16.830  0.000
pair_coeff  6   12 ljlambda 0.200000  5.530  0.621622  16.590  0.000
pair_coeff  6   13 ljlambda 0.200000  5.910  0.837838  17.730  0.000
pair_coeff  6   14 ljlambda 0.200000  5.700  0.864865  17.100  0.000
pair_coeff  6   15 ljlambda 0.200000  5.110  0.662163  15.330  0.000
pair_coeff  6   16 ljlambda 0.200000  5.560  0.621622  16.680  0.000
pair_coeff  6   17 ljlambda 0.200000  5.360  0.581081  16.080  0.000
pair_coeff  6   18 ljlambda 0.200000  5.300  0.864865  15.900  0.000
pair_coeff  6   19 ljlambda 0.200000  5.260  0.662163  15.780  0.000
pair_coeff  6   20 ljlambda 0.200000  5.610  0.851351  16.830  0.000
pair_coeff  6   21 ljlambda 0.200000  5.610  0.548649  16.830  0.000
pair_coeff  6   22 ljlambda 0.200000  4.770  0.482432  14.310  0.000
pair_coeff  6   23 ljlambda 0.200000  5.700  0.435135  17.100  0.000
pair_coeff  6   24 ljlambda 0.200000  5.330  0.491892  15.990  0.000
pair_coeff  6   25 ljlambda 0.200000  5.800  0.255406  17.400  0.000
pair_coeff  6   26 ljlambda 0.200000  5.040  0.510811  15.120  0.000
pair_coeff  6   27 ljlambda 0.200000  5.310  0.387838  15.930  0.000
pair_coeff  6   28 ljlambda 0.200000  5.480  0.416216  16.440  0.000
pair_coeff  6   29 ljlambda 0.200000  5.750  0.558108  17.250  0.000
pair_coeff  6   30 ljlambda 0.200000  5.450  0.567568  16.350  0.000
pair_coeff  6   31 ljlambda 0.200000  5.610  0.595946  16.830  0.000
pair_coeff  6   32 ljlambda 0.200000  5.530  0.435135  16.590  0.000
pair_coeff  6   33 ljlambda 0.200000  5.910  0.586487  17.730  0.000
pair_coeff  6   34 ljlambda 0.200000  5.700  0.605405  17.100  0.000
pair_coeff  6   35 ljlambda 0.200000  5.110  0.463514  15.330  0.000
pair_coeff  6   36 ljlambda 0.200000  5.560  0.435135  16.680  0.000
pair_coeff  6   37 ljlambda 0.200000  5.360  0.406757  16.080  0.000
pair_coeff  6   38 ljlambda 0.200000  5.300  0.605405  15.900  0.000
pair_coeff  6   39 ljlambda 0.200000  5.260  0.463514  15.780  0.000
pair_coeff  6   40 ljlambda 0.200000  5.610  0.595946  16.830  0.000
pair_coeff  7   7  ljlambda 0.200000  5.580  0.378378  16.740  35.000
pair_coeff  7   8  ljlambda 0.200000  5.750  0.418918  17.250  35.000
pair_coeff  7   9  ljlambda 0.200000  6.020  0.621621  18.060  0.000
pair_coeff  7   10 ljlambda 0.200000  5.720  0.635135  17.160  0.000
pair_coeff  7   11 ljlambda 0.200000  5.880  0.675676  17.640  0.000
pair_coeff  7   12 ljlambda 0.200000  5.800  0.445946  17.400  0.000
pair_coeff  7   13 ljlambda 0.200000  6.180  0.662162  18.540  0.000
pair_coeff  7   14 ljlambda 0.200000  5.970  0.689189  17.910  0.000
pair_coeff  7   15 ljlambda 0.200000  5.380  0.486486  16.140  0.000
pair_coeff  7   16 ljlambda 0.200000  5.830  0.445946  17.490  35.000
pair_coeff  7   17 ljlambda 0.200000  5.630  0.405405  16.890  0.000
pair_coeff  7   18 ljlambda 0.200000  5.570  0.689189  16.710  0.000
pair_coeff  7   19 ljlambda 0.200000  5.530  0.486486  16.590  0.000
pair_coeff  7   20 ljlambda 0.200000  5.880  0.675676  17.640  0.000
pair_coeff  7   21 ljlambda 0.200000  5.880  0.425676  17.640  0.000
pair_coeff  7   22 ljlambda 0.200000  5.040  0.35946   15.120  0.000
pair_coeff  7   23 ljlambda 0.200000  5.970  0.312162  17.910  35.000
pair_coeff  7   24 ljlambda 0.200000  5.600  0.368919  16.800  0.000
pair_coeff  7   25 ljlambda 0.200000  6.070  0.132432  18.210  35.000
pair_coeff  7   26 ljlambda 0.200000  5.310  0.387838  15.930  0.000
pair_coeff  7   27 ljlambda 0.200000  5.580  0.264865  16.740  35.000
pair_coeff  7   28 ljlambda 0.200000  5.750  0.293243  17.250  35.000
pair_coeff  7   29 ljlambda 0.200000  6.020  0.435135  18.060  0.000
pair_coeff  7   30 ljlambda 0.200000  5.720  0.444594  17.160  0.000
pair_coeff  7   31 ljlambda 0.200000  5.880  0.472973  17.640  0.000
pair_coeff  7   32 ljlambda 0.200000  5.800  0.312162  17.400  0.000
pair_coeff  7   33 ljlambda 0.200000  6.180  0.463513  18.540  0.000
pair_coeff  7   34 ljlambda 0.200000  5.970  0.482432  17.910  0.000
pair_coeff  7   35 ljlambda 0.200000  5.380  0.34054   16.140  0.000
pair_coeff  7   36 ljlambda 0.200000  5.830  0.312162  17.490  35.000
pair_coeff  7   37 ljlambda 0.200000  5.630  0.283783  16.890  0.000
pair_coeff  7   38 ljlambda 0.200000  5.570  0.482432  16.710  0.000
pair_coeff  7   39 ljlambda 0.200000  5.530  0.34054   16.590  0.000
pair_coeff  7   40 ljlambda 0.200000  5.880  0.472973  17.640  0.000
pair_coeff  8   8  ljlambda 0.200000  5.920  0.459459  17.760  35.000
pair_coeff  8   9  ljlambda 0.200000  6.190  0.662162  18.570  0.000
pair_coeff  8   10 ljlambda 0.200000  5.890  0.675676  17.670  0.000
pair_coeff  8   11 ljlambda 0.200000  6.050  0.716216  18.150  0.000
pair_coeff  8   12 ljlambda 0.200000  5.970  0.486486  17.910  0.000
pair_coeff  8   13 ljlambda 0.200000  6.350  0.702703  19.050  0.000
pair_coeff  8   14 ljlambda 0.200000  6.140  0.729730  18.420  0.000
pair_coeff  8   15 ljlambda 0.200000  5.550  0.527027  16.650  0.000
pair_coeff  8   16 ljlambda 0.200000  6.000  0.486486  18.000  35.000
pair_coeff  8   17 ljlambda 0.200000  5.800  0.445946  17.400  0.000
pair_coeff  8   18 ljlambda 0.200000  5.740  0.729730  17.220  0.000
pair_coeff  8   19 ljlambda 0.200000  5.700  0.527027  17.100  0.000
pair_coeff  8   20 ljlambda 0.200000  6.050  0.716216  18.150  0.000
pair_coeff  8   21 ljlambda 0.200000  6.050  0.454054  18.150  0.000
pair_coeff  8   22 ljlambda 0.200000  5.210  0.387838  15.630  0.000
pair_coeff  8   23 ljlambda 0.200000  6.140  0.34054   18.420  35.000
pair_coeff  8   24 ljlambda 0.200000  5.770  0.397297  17.310  0.000
pair_coeff  8   25 ljlambda 0.200000  6.240  0.17689   18.720  35.000
pair_coeff  8   26 ljlambda 0.200000  5.480  0.416216  16.440  0.000
pair_coeff  8   27 ljlambda 0.200000  5.750  0.293243  17.250  35.000
pair_coeff  8   28 ljlambda 0.200000  5.920  0.321621  17.760  35.000
pair_coeff  8   29 ljlambda 0.200000  6.190  0.463513  18.570  0.000
pair_coeff  8   30 ljlambda 0.200000  5.890  0.472973  17.670  0.000
pair_coeff  8   31 ljlambda 0.200000  6.050  0.501351  18.150  0.000
pair_coeff  8   32 ljlambda 0.200000  5.970  0.34054   17.910  0.000
pair_coeff  8   33 ljlambda 0.200000  6.350  0.491892  19.050  0.000
pair_coeff  8   34 ljlambda 0.200000  6.140  0.510811  18.420  0.000
pair_coeff  8   35 ljlambda 0.200000  5.550  0.368919  16.650  0.000
pair_coeff  8   36 ljlambda 0.200000  6.000  0.34054   18.000  35.000
pair_coeff  8   37 ljlambda 0.200000  5.800  0.312162  17.400  0.000
pair_coeff  8   38 ljlambda 0.200000  5.740  0.510811  17.220  0.000
pair_coeff  8   39 ljlambda 0.200000  5.700  0.368919  17.100  0.000
pair_coeff  8   40 ljlambda 0.200000  6.050  0.501351  18.150  0.000
pair_coeff  9   9  ljlambda 0.200000  6.460  0.864865  19.380  0.000
pair_coeff  9   10 ljlambda 0.200000  6.160  0.878379  18.480  0.000
pair_coeff  9   11 ljlambda 0.200000  6.320  0.918919  18.960  0.000
pair_coeff  9   12 ljlambda 0.200000  6.240  0.689189  18.720  0.000
pair_coeff  9   13 ljlambda 0.200000  6.620  0.905406  19.860  0.000
pair_coeff  9   14 ljlambda 0.200000  6.410  0.932433  19.230  0.000
pair_coeff  9   15 ljlambda 0.200000  5.820  0.729730  17.460  0.000
pair_coeff  9   16 ljlambda 0.200000  6.270  0.689189  18.810  0.000
pair_coeff  9   17 ljlambda 0.200000  6.070  0.648649  18.210  0.000
pair_coeff  9   18 ljlambda 0.200000  6.010  0.932433  18.030  0.000
pair_coeff  9   19 ljlambda 0.200000  5.970  0.729730  17.910  0.000
pair_coeff  9   20 ljlambda 0.200000  6.320  0.918919  18.960  0.000
pair_coeff  9   21 ljlambda 0.200000  6.320  0.595946  18.960  0.000
pair_coeff  9   22 ljlambda 0.200000  5.480  0.52973   16.440  0.000
pair_coeff  9   23 ljlambda 0.200000  6.410  0.482432  19.230  0.000
pair_coeff  9   24 ljlambda 0.200000  6.040  0.539189  18.120  0.000
pair_coeff  9   25 ljlambda 0.200000  6.510  0.302703  19.530  0.000
pair_coeff  9   26 ljlambda 0.200000  5.750  0.558108  17.250  0.000
pair_coeff  9   27 ljlambda 0.200000  6.020  0.435135  18.060  0.000
pair_coeff  9   28 ljlambda 0.200000  6.190  0.463513  18.570  0.000
pair_coeff  9   29 ljlambda 0.200000  6.460  0.605405  19.380  0.000
pair_coeff  9   30 ljlambda 0.200000  6.160  0.614865  18.480  0.000
pair_coeff  9   31 ljlambda 0.200000  6.320  0.643243  18.960  0.000
pair_coeff  9   32 ljlambda 0.200000  6.240  0.482432  18.720  0.000
pair_coeff  9   33 ljlambda 0.200000  6.620  0.633784  19.860  0.000
pair_coeff  9   34 ljlambda 0.200000  6.410  0.652703  19.230  0.000
pair_coeff  9   35 ljlambda 0.200000  5.820  0.510811  17.460  0.000
pair_coeff  9   36 ljlambda 0.200000  6.270  0.482432  18.810  0.000
pair_coeff  9   37 ljlambda 0.200000  6.070  0.454054  18.210  0.000
pair_coeff  9   38 ljlambda 0.200000  6.010  0.652703  18.030  0.000
pair_coeff  9   39 ljlambda 0.200000  5.970  0.510811  17.910  0.000
pair_coeff  9   40 ljlambda 0.200000  6.320  0.643243  18.960  0.000
pair_coeff  10  10 ljlambda 0.200000  5.860  0.891892  17.580  0.000
pair_coeff  10  11 ljlambda 0.200000  6.020  0.932433  18.060  0.000
pair_coeff  10  12 ljlambda 0.200000  5.940  0.702703  17.820  0.000
pair_coeff  10  13 ljlambda 0.200000  6.320  0.918919  18.960  0.000
pair_coeff  10  14 ljlambda 0.200000  6.110  0.945946  18.330  0.000
pair_coeff  10  15 ljlambda 0.200000  5.520  0.743244  16.560  0.000
pair_coeff  10  16 ljlambda 0.200000  5.970  0.702703  17.910  0.000
pair_coeff  10  17 ljlambda 0.200000  5.770  0.662162  17.310  0.000
pair_coeff  10  18 ljlambda 0.200000  5.710  0.945946  17.130  0.000
pair_coeff  10  19 ljlambda 0.200000  5.670  0.743244  17.010  0.000
pair_coeff  10  20 ljlambda 0.200000  6.020  0.932433  18.060  0.000
pair_coeff  10  21 ljlambda 0.200000  6.020  0.605405  18.060  0.000
pair_coeff  10  22 ljlambda 0.200000  5.180  0.539189  15.540  0.000
pair_coeff  10  23 ljlambda 0.200000  6.110  0.491892  18.330  0.000
pair_coeff  10  24 ljlambda 0.200000  5.740  0.548649  17.220  0.000
pair_coeff  10  25 ljlambda 0.200000  6.210  0.312162  18.630  0.000
pair_coeff  10  26 ljlambda 0.200000  5.450  0.567568  16.350  0.000
pair_coeff  10  27 ljlambda 0.200000  5.720  0.444594  17.160  0.000
pair_coeff  10  28 ljlambda 0.200000  5.890  0.472973  17.670  0.000
pair_coeff  10  29 ljlambda 0.200000  6.160  0.614865  18.480  0.000
pair_coeff  10  30 ljlambda 0.200000  5.860  0.624324  17.580  0.000
pair_coeff  10  31 ljlambda 0.200000  6.020  0.652703  18.060  0.000
pair_coeff  10  32 ljlambda 0.200000  5.940  0.491892  17.820  0.000
pair_coeff  10  33 ljlambda 0.200000  6.320  0.643243  18.960  0.000
pair_coeff  10  34 ljlambda 0.200000  6.110  0.662162  18.330  0.000
pair_coeff  10  35 ljlambda 0.200000  5.520  0.520271  16.560  0.000
pair_coeff  10  36 ljlambda 0.200000  5.970  0.491892  17.910  0.000
pair_coeff  10  37 ljlambda 0.200000  5.770  0.463513  17.310  0.000
pair_coeff  10  38 ljlambda 0.200000  5.710  0.662162  17.130  0.000
pair_coeff  10  39 ljlambda 0.200000  5.670  0.520271  17.010  0.000
pair_coeff  10  40 ljlambda 0.200000  6.020  0.652703  18.060  0.000
pair_coeff  11  11 ljlambda 0.200000  6.180  0.972973  18.540  0.000
pair_coeff  11  12 ljlambda 0.200000  6.100  0.743243  18.300  0.000
pair_coeff  11  13 ljlambda 0.200000  6.480  0.959459  19.440  0.000
pair_coeff  11  14 ljlambda 0.200000  6.270  0.986486  18.810  0.000
pair_coeff  11  15 ljlambda 0.200000  5.680  0.783784  17.040  0.000
pair_coeff  11  16 ljlambda 0.200000  6.130  0.743243  18.390  0.000
pair_coeff  11  17 ljlambda 0.200000  5.930  0.702703  17.790  0.000
pair_coeff  11  18 ljlambda 0.200000  5.870  0.986486  17.610  0.000
pair_coeff  11  19 ljlambda 0.200000  5.830  0.783784  17.490  0.000
pair_coeff  11  20 ljlambda 0.200000  6.180  0.972973  18.540  0.000
pair_coeff  11  21 ljlambda 0.200000  6.180  0.633784  18.540  0.000
pair_coeff  11  22 ljlambda 0.200000  5.340  0.567568  16.020  0.000
pair_coeff  11  23 ljlambda 0.200000  6.270  0.52027   18.810  0.000
pair_coeff  11  24 ljlambda 0.200000  5.900  0.577027  17.700  0.000
pair_coeff  11  25 ljlambda 0.200000  6.370  0.34054   19.110  0.000
pair_coeff  11  26 ljlambda 0.200000  5.610  0.595946  16.830  0.000
pair_coeff  11  27 ljlambda 0.200000  5.880  0.472973  17.640  0.000
pair_coeff  11  28 ljlambda 0.200000  6.050  0.501351  18.150  0.000
pair_coeff  11  29 ljlambda 0.200000  6.320  0.643243  18.960  0.000
pair_coeff  11  30 ljlambda 0.200000  6.020  0.652703  18.060  0.000
pair_coeff  11  31 ljlambda 0.200000  6.180  0.681081  18.540  0.000
pair_coeff  11  32 ljlambda 0.200000  6.100  0.52027   18.300  0.000
pair_coeff  11  33 ljlambda 0.200000  6.480  0.671621  19.440  0.000
pair_coeff  11  34 ljlambda 0.200000  6.270  0.69054   18.810  0.000
pair_coeff  11  35 ljlambda 0.200000  5.680  0.548649  17.040  0.000
pair_coeff  11  36 ljlambda 0.200000  6.130  0.52027   18.390  0.000
pair_coeff  11  37 ljlambda 0.200000  5.930  0.491892  17.790  0.000
pair_coeff  11  38 ljlambda 0.200000  5.870  0.69054   17.610  0.000
pair_coeff  11  39 ljlambda 0.200000  5.830  0.548649  17.490  0.000
pair_coeff  11  40 ljlambda 0.200000  6.180  0.681081  18.540  0.000
pair_coeff  12  12 ljlambda 0.200000  6.020  0.513514  18.060  0.000
pair_coeff  12  13 ljlambda 0.200000  6.400  0.729730  19.200  0.000
pair_coeff  12  14 ljlambda 0.200000  6.190  0.756757  18.570  0.000
pair_coeff  12  15 ljlambda 0.200000  5.600  0.554054  16.800  0.000
pair_coeff  12  16 ljlambda 0.200000  6.050  0.513514  18.150  0.000
pair_coeff  12  17 ljlambda 0.200000  5.850  0.472973  17.550  0.000
pair_coeff  12  18 ljlambda 0.200000  5.790  0.756757  17.370  0.000
pair_coeff  12  19 ljlambda 0.200000  5.750  0.554054  17.250  0.000
pair_coeff  12  20 ljlambda 0.200000  6.100  0.743243  18.300  0.000
pair_coeff  12  21 ljlambda 0.200000  6.100  0.472973  18.300  0.000
pair_coeff  12  22 ljlambda 0.200000  5.260  0.406757  15.780  0.000
pair_coeff  12  23 ljlambda 0.200000  6.190  0.35946   18.570  0.000
pair_coeff  12  24 ljlambda 0.200000  5.820  0.416216  17.460  0.000
pair_coeff  12  25 ljlambda 0.200000  6.290  0.17973   18.870  0.000
pair_coeff  12  26 ljlambda 0.200000  5.530  0.435135  16.590  0.000
pair_coeff  12  27 ljlambda 0.200000  5.800  0.312162  17.400  0.000
pair_coeff  12  28 ljlambda 0.200000  5.970  0.34054   17.910  0.000
pair_coeff  12  29 ljlambda 0.200000  6.240  0.482432  18.720  0.000
pair_coeff  12  30 ljlambda 0.200000  5.940  0.491892  17.820  0.000
pair_coeff  12  31 ljlambda 0.200000  6.100  0.52027   18.300  0.000
pair_coeff  12  32 ljlambda 0.200000  6.020  0.35946   18.060  0.000
pair_coeff  12  33 ljlambda 0.200000  6.400  0.510811  19.200  0.000
pair_coeff  12  34 ljlambda 0.200000  6.190  0.52973   18.570  0.000
pair_coeff  12  35 ljlambda 0.200000  5.600  0.387838  16.800  0.000
pair_coeff  12  36 ljlambda 0.200000  6.050  0.35946   18.150  0.000
pair_coeff  12  37 ljlambda 0.200000  5.850  0.331081  17.550  0.000
pair_coeff  12  38 ljlambda 0.200000  5.790  0.52973   17.370  0.000
pair_coeff  12  39 ljlambda 0.200000  5.750  0.387838  17.250  0.000
pair_coeff  12  40 ljlambda 0.200000  6.100  0.52027   18.300  0.000
pair_coeff  13  13 ljlambda 0.200000  6.780  0.945946  20.340  0.000
pair_coeff  13  14 ljlambda 0.200000  6.570  0.972973  19.710  0.000
pair_coeff  13  15 ljlambda 0.200000  5.980  0.770270  17.940  0.000
pair_coeff  13  16 ljlambda 0.200000  6.430  0.729730  19.290  0.000
pair_coeff  13  17 ljlambda 0.200000  6.230  0.689189  18.690  0.000
pair_coeff  13  18 ljlambda 0.200000  6.170  0.972973  18.510  0.000
pair_coeff  13  19 ljlambda 0.200000  6.130  0.770270  18.390  0.000
pair_coeff  13  20 ljlambda 0.200000  6.480  0.959459  19.440  0.000
pair_coeff  13  21 ljlambda 0.200000  6.480  0.624324  19.440  0.000
pair_coeff  13  22 ljlambda 0.200000  5.640  0.558108  16.920  0.000
pair_coeff  13  23 ljlambda 0.200000  6.570  0.510811  19.710  0.000
pair_coeff  13  24 ljlambda 0.200000  6.200  0.567568  18.600  0.000
pair_coeff  13  25 ljlambda 0.200000  6.670  0.331081  20.010  0.000
pair_coeff  13  26 ljlambda 0.200000  5.910  0.586487  17.730  0.000
pair_coeff  13  27 ljlambda 0.200000  6.180  0.463513  18.540  0.000
pair_coeff  13  28 ljlambda 0.200000  6.350  0.491892  19.050  0.000
pair_coeff  13  29 ljlambda 0.200000  6.620  0.633784  19.860  0.000
pair_coeff  13  30 ljlambda 0.200000  6.320  0.643243  18.960  0.000
pair_coeff  13  31 ljlambda 0.200000  6.480  0.671621  19.440  0.000
pair_coeff  13  32 ljlambda 0.200000  6.400  0.510811  19.200  0.000
pair_coeff  13  33 ljlambda 0.200000  6.780  0.662162  20.340  0.000
pair_coeff  13  34 ljlambda 0.200000  6.570  0.681081  19.710  0.000
pair_coeff  13  35 ljlambda 0.200000  5.980  0.539189  17.940  0.000
pair_coeff  13  36 ljlambda 0.200000  6.430  0.510811  19.290  0.000
pair_coeff  13  37 ljlambda 0.200000  6.230  0.482432  18.690  0.000
pair_coeff  13  38 ljlambda 0.200000  6.170  0.681081  18.510  0.000
pair_coeff  13  39 ljlambda 0.200000  6.130  0.539189  18.390  0.000
pair_coeff  13  40 ljlambda 0.200000  6.480  0.671621  19.440  0.000
pair_coeff  14  14 ljlambda 0.200000  6.360  1.000000  19.080  0.000
pair_coeff  14  15 ljlambda 0.200000  5.770  0.797297  17.310  0.000
pair_coeff  14  16 ljlambda 0.200000  6.220  0.756757  18.660  0.000
pair_coeff  14  17 ljlambda 0.200000  6.020  0.716216  18.060  0.000
pair_coeff  14  18 ljlambda 0.200000  5.960  1.000000  17.880  0.000
pair_coeff  14  19 ljlambda 0.200000  5.920  0.797297  17.760  0.000
pair_coeff  14  20 ljlambda 0.200000  6.270  0.986486  18.810  0.000
pair_coeff  14  21 ljlambda 0.200000  6.270  0.643243  18.810  0.000
pair_coeff  14  22 ljlambda 0.200000  5.430  0.577027  16.290  0.000
pair_coeff  14  23 ljlambda 0.200000  6.360  0.52973   19.080  0.000
pair_coeff  14  24 ljlambda 0.200000  5.990  0.586487  17.970  0.000
pair_coeff  14  25 ljlambda 0.200000  6.460  0.35      19.380  0.000
pair_coeff  14  26 ljlambda 0.200000  5.700  0.605405  17.100  0.000
pair_coeff  14  27 ljlambda 0.200000  5.970  0.482432  17.910  0.000
pair_coeff  14  28 ljlambda 0.200000  6.140  0.510811  18.420  0.000
pair_coeff  14  29 ljlambda 0.200000  6.410  0.652703  19.230  0.000
pair_coeff  14  30 ljlambda 0.200000  6.110  0.662162  18.330  0.000
pair_coeff  14  31 ljlambda 0.200000  6.270  0.69054   18.810  0.000
pair_coeff  14  32 ljlambda 0.200000  6.190  0.52973   18.570  0.000
pair_coeff  14  33 ljlambda 0.200000  6.570  0.681081  19.710  0.000
pair_coeff  14  34 ljlambda 0.200000  6.360  0.7       19.080  0.000
pair_coeff  14  35 ljlambda 0.200000  5.770  0.558108  17.310  0.000
pair_coeff  14  36 ljlambda 0.200000  6.220  0.52973   18.660  0.000
pair_coeff  14  37 ljlambda 0.200000  6.020  0.501351  18.060  0.000
pair_coeff  14  38 ljlambda 0.200000  5.960  0.7       17.880  0.000
pair_coeff  14  39 ljlambda 0.200000  5.920  0.558108  17.760  0.000
pair_coeff  14  40 ljlambda 0.200000  6.270  0.69054   18.810  0.000
pair_coeff  15  15 ljlambda 0.200000  5.180  0.594595  15.540  0.000
pair_coeff  15  16 ljlambda 0.200000  5.630  0.554054  16.890  0.000
pair_coeff  15  17 ljlambda 0.200000  5.430  0.513514  16.290  0.000
pair_coeff  15  18 ljlambda 0.200000  5.370  0.797297  16.110  0.000
pair_coeff  15  19 ljlambda 0.200000  5.330  0.594595  15.990  0.000
pair_coeff  15  20 ljlambda 0.200000  5.680  0.783784  17.040  0.000
pair_coeff  15  21 ljlambda 0.200000  5.680  0.501352  17.040  0.000
pair_coeff  15  22 ljlambda 0.200000  4.840  0.435135  14.520  0.000
pair_coeff  15  23 ljlambda 0.200000  5.770  0.387838  17.310  0.000
pair_coeff  15  24 ljlambda 0.200000  5.400  0.444595  16.200  0.000
pair_coeff  15  25 ljlambda 0.200000  5.870  0.208109  17.610  0.000
pair_coeff  15  26 ljlambda 0.200000  5.110  0.463514  15.330  0.000
pair_coeff  15  27 ljlambda 0.200000  5.380  0.34054   16.140  0.000
pair_coeff  15  28 ljlambda 0.200000  5.550  0.368919  16.650  0.000
pair_coeff  15  29 ljlambda 0.200000  5.820  0.510811  17.460  0.000
pair_coeff  15  30 ljlambda 0.200000  5.520  0.520271  16.560  0.000
pair_coeff  15  31 ljlambda 0.200000  5.680  0.548649  17.040  0.000
pair_coeff  15  32 ljlambda 0.200000  5.600  0.387838  16.800  0.000
pair_coeff  15  33 ljlambda 0.200000  5.980  0.539189  17.940  0.000
pair_coeff  15  34 ljlambda 0.200000  5.770  0.558108  17.310  0.000
pair_coeff  15  35 ljlambda 0.200000  5.180  0.416216  15.540  0.000
pair_coeff  15  36 ljlambda 0.200000  5.630  0.387838  16.890  0.000
pair_coeff  15  37 ljlambda 0.200000  5.430  0.35946   16.290  0.000
pair_coeff  15  38 ljlambda 0.200000  5.370  0.558108  16.110  0.000
pair_coeff  15  39 ljlambda 0.200000  5.330  0.416216  15.990  0.000
pair_coeff  15  40 ljlambda 0.200000  5.680  0.548649  17.040  0.000
pair_coeff  16  16 ljlambda 0.200000  6.080  0.513514  18.240  35.000
pair_coeff  16  17 ljlambda 0.200000  5.880  0.472973  17.640  0.000
pair_coeff  16  18 ljlambda 0.200000  5.820  0.756757  17.460  0.000
pair_coeff  16  19 ljlambda 0.200000  5.780  0.554054  17.340  0.000
pair_coeff  16  20 ljlambda 0.200000  6.130  0.743243  18.390  0.000
pair_coeff  16  21 ljlambda 0.200000  6.130  0.472973  18.390  0.000
pair_coeff  16  22 ljlambda 0.200000  5.290  0.406757  15.870  0.000
pair_coeff  16  23 ljlambda 0.200000  6.220  0.35946   18.660  35.000
pair_coeff  16  24 ljlambda 0.200000  5.850  0.416216  17.550  0.000
pair_coeff  16  25 ljlambda 0.200000  6.320  0.17973   18.960  35.000
pair_coeff  16  26 ljlambda 0.200000  5.560  0.435135  16.680  0.000
pair_coeff  16  27 ljlambda 0.200000  5.830  0.312162  17.490  35.000
pair_coeff  16  28 ljlambda 0.200000  6.000  0.34054   18.000  35.000
pair_coeff  16  29 ljlambda 0.200000  6.270  0.482432  18.810  0.000
pair_coeff  16  30 ljlambda 0.200000  5.970  0.491892  17.910  0.000
pair_coeff  16  31 ljlambda 0.200000  6.130  0.52027   18.390  0.000
pair_coeff  16  32 ljlambda 0.200000  6.050  0.35946   18.150  0.000
pair_coeff  16  33 ljlambda 0.200000  6.430  0.510811  19.290  0.000
pair_coeff  16  34 ljlambda 0.200000  6.220  0.52973   18.660  0.000
pair_coeff  16  35 ljlambda 0.200000  5.630  0.387838  16.890  0.000
pair_coeff  16  36 ljlambda 0.200000  6.080  0.35946   18.240  35.000
pair_coeff  16  37 ljlambda 0.200000  5.880  0.331081  17.640  0.000
pair_coeff  16  38 ljlambda 0.200000  5.820  0.52973   17.460  0.000
pair_coeff  16  39 ljlambda 0.200000  5.780  0.387838  17.340  0.000
pair_coeff  16  40 ljlambda 0.200000  6.130  0.52027   18.390  0.000
pair_coeff  17  17 ljlambda 0.200000  5.680  0.432432  17.040  0.000
pair_coeff  17  18 ljlambda 0.200000  5.620  0.716216  16.860  0.000
pair_coeff  17  19 ljlambda 0.200000  5.580  0.513514  16.740  0.000
pair_coeff  17  20 ljlambda 0.200000  5.930  0.702703  17.790  0.000
pair_coeff  17  21 ljlambda 0.200000  5.930  0.444594  17.790  0.000
pair_coeff  17  22 ljlambda 0.200000  5.090  0.378378  15.270  0.000
pair_coeff  17  23 ljlambda 0.200000  6.020  0.331081  18.060  0.000
pair_coeff  17  24 ljlambda 0.200000  5.650  0.387838  16.950  0.000
pair_coeff  17  25 ljlambda 0.200000  6.120  0.151351  18.360  0.000
pair_coeff  17  26 ljlambda 0.200000  5.360  0.406757  16.080  0.000
pair_coeff  17  27 ljlambda 0.200000  5.630  0.283783  16.890  0.000
pair_coeff  17  28 ljlambda 0.200000  5.800  0.312162  17.400  0.000
pair_coeff  17  29 ljlambda 0.200000  6.070  0.454054  18.210  0.000
pair_coeff  17  30 ljlambda 0.200000  5.770  0.463513  17.310  0.000
pair_coeff  17  31 ljlambda 0.200000  5.930  0.491892  17.790  0.000
pair_coeff  17  32 ljlambda 0.200000  5.850  0.331081  17.550  0.000
pair_coeff  17  33 ljlambda 0.200000  6.230  0.482432  18.690  0.000
pair_coeff  17  34 ljlambda 0.200000  6.020  0.501351  18.060  0.000
pair_coeff  17  35 ljlambda 0.200000  5.430  0.35946   16.290  0.000
pair_coeff  17  36 ljlambda 0.200000  5.880  0.331081  17.640  0.000
pair_coeff  17  37 ljlambda 0.200000  5.680  0.302702  17.040  0.000
pair_coeff  17  38 ljlambda 0.200000  5.620  0.501351  16.860  0.000
pair_coeff  17  39 ljlambda 0.200000  5.580  0.35946   16.740  0.000
pair_coeff  17  40 ljlambda 0.200000  5.930  0.491892  17.790  0.000
pair_coeff  18  18 ljlambda 0.200000  5.560  1.000000  16.680  0.000
pair_coeff  18  19 ljlambda 0.200000  5.520  0.797297  16.560  0.000
pair_coeff  18  20 ljlambda 0.200000  5.870  0.986486  17.610  0.000
pair_coeff  18  21 ljlambda 0.200000  5.870  0.643243  17.610  0.000
pair_coeff  18  22 ljlambda 0.200000  5.030  0.577027  15.090  0.000
pair_coeff  18  23 ljlambda 0.200000  5.960  0.52973   17.880  0.000
pair_coeff  18  24 ljlambda 0.200000  5.590  0.586487  16.770  0.000
pair_coeff  18  25 ljlambda 0.200000  6.060  0.385     18.180  0.000
pair_coeff  18  26 ljlambda 0.200000  5.300  0.605405  15.900  0.000
pair_coeff  18  27 ljlambda 0.200000  5.570  0.482432  16.710  0.000
pair_coeff  18  28 ljlambda 0.200000  5.740  0.56189   17.220  0.000
pair_coeff  18  29 ljlambda 0.200000  6.010  0.652703  18.030  0.000
pair_coeff  18  30 ljlambda 0.200000  5.710  0.662162  17.130  0.000
pair_coeff  18  31 ljlambda 0.200000  5.870  0.69054   17.610  0.000
pair_coeff  18  32 ljlambda 0.200000  5.790  0.52973   17.370  0.000
pair_coeff  18  33 ljlambda 0.200000  6.170  0.681081  18.510  0.000
pair_coeff  18  34 ljlambda 0.200000  5.960  0.7       17.880  0.000
pair_coeff  18  35 ljlambda 0.200000  5.370  0.558108  16.110  0.000
pair_coeff  18  36 ljlambda 0.200000  5.820  0.52973   17.460  0.000
pair_coeff  18  37 ljlambda 0.200000  5.620  0.501351  16.860  0.000
pair_coeff  18  38 ljlambda 0.200000  5.560  0.70      16.680  0.000
pair_coeff  18  39 ljlambda 0.200000  5.520  0.558108  16.560  0.000
pair_coeff  18  40 ljlambda 0.200000  5.870  0.69054   17.610  0.000
pair_coeff  19  19 ljlambda 0.200000  5.480  0.594595  16.440  0.000
pair_coeff  19  20 ljlambda 0.200000  5.830  0.783784  17.490  0.000
pair_coeff  19  21 ljlambda 0.200000  5.830  0.501352  17.490  0.000
pair_coeff  19  22 ljlambda 0.200000  4.990  0.435135  14.970  0.000
pair_coeff  19  23 ljlambda 0.200000  5.920  0.387838  17.760  0.000
pair_coeff  19  24 ljlambda 0.200000  5.550  0.444595  16.650  0.000
pair_coeff  19  25 ljlambda 0.200000  6.020  0.208109  18.060  0.000
pair_coeff  19  26 ljlambda 0.200000  5.260  0.463514  15.780  0.000
pair_coeff  19  27 ljlambda 0.200000  5.530  0.34054   16.590  0.000
pair_coeff  19  28 ljlambda 0.200000  5.700  0.368919  17.100  0.000
pair_coeff  19  29 ljlambda 0.200000  5.970  0.510811  17.910  0.000
pair_coeff  19  30 ljlambda 0.200000  5.670  0.520271  17.010  0.000
pair_coeff  19  31 ljlambda 0.200000  5.830  0.548649  17.490  0.000
pair_coeff  19  32 ljlambda 0.200000  5.750  0.387838  17.250  0.000
pair_coeff  19  33 ljlambda 0.200000  6.130  0.539189  18.390  0.000
pair_coeff  19  34 ljlambda 0.200000  5.920  0.558108  17.760  0.000
pair_coeff  19  35 ljlambda 0.200000  5.330  0.416216  15.990  0.000
pair_coeff  19  36 ljlambda 0.200000  5.780  0.387838  17.340  0.000
pair_coeff  19  37 ljlambda 0.200000  5.580  0.35946   16.740  0.000
pair_coeff  19  38 ljlambda 0.200000  5.520  0.558108  16.560  0.000
pair_coeff  19  39 ljlambda 0.200000  5.480  0.416216  16.440  0.000
pair_coeff  19  40 ljlambda 0.200000  5.830  0.548649  17.490  0.000
pair_coeff  20  20 ljlambda 0.200000  6.180  0.972973  18.540  0.000
pair_coeff  20  21 ljlambda 0.200000  6.180  0.633784  18.540  0.000
pair_coeff  20  22 ljlambda 0.200000  5.340  0.567568  16.020  0.000
pair_coeff  20  23 ljlambda 0.200000  6.270  0.52027   18.810  0.000
pair_coeff  20  24 ljlambda 0.200000  5.900  0.577027  17.700  0.000
pair_coeff  20  25 ljlambda 0.200000  6.370  0.34054   19.110  0.000
pair_coeff  20  26 ljlambda 0.200000  5.610  0.595946  16.830  0.000
pair_coeff  20  27 ljlambda 0.200000  5.880  0.472973  17.640  0.000
pair_coeff  20  28 ljlambda 0.200000  6.050  0.501351  18.150  0.000
pair_coeff  20  29 ljlambda 0.200000  6.320  0.643243  18.960  0.000
pair_coeff  20  30 ljlambda 0.200000  6.020  0.652703  18.060  0.000
pair_coeff  20  31 ljlambda 0.200000  6.180  0.681081  18.540  0.000
pair_coeff  20  32 ljlambda 0.200000  6.100  0.52027   18.300  0.000
pair_coeff  20  33 ljlambda 0.200000  6.480  0.671621  19.440  0.000
pair_coeff  20  34 ljlambda 0.200000  6.270  0.69054   18.810  0.000
pair_coeff  20  35 ljlambda 0.200000  5.680  0.548649  17.040  0.000
pair_coeff  20  36 ljlambda 0.200000  6.130  0.52027   18.390  0.000
pair_coeff  20  37 ljlambda 0.200000  5.930  0.491892  17.790  0.000
pair_coeff  20  38 ljlambda 0.200000  5.870  0.69054   17.610  0.000
pair_coeff  20  39 ljlambda 0.200000  5.830  0.548649  17.490  0.000
pair_coeff  20  40 ljlambda 0.200000  6.180  0.681081  18.540  0.000
pair_coeff  21  21 ljlambda 0.200000  6.180  0.586487  18.540  0.000
pair_coeff  21  22 ljlambda 0.200000  5.340  0.52027   16.020  0.000
pair_coeff  21  23 ljlambda 0.200000  6.270  0.472973  18.810  0.000
pair_coeff  21  24 ljlambda 0.200000  5.900  0.52973   17.700  0.000
pair_coeff  21  25 ljlambda 0.200000  6.370  0.293243  19.110  0.000
pair_coeff  21  26 ljlambda 0.200000  5.610  0.548649  16.830  0.000
pair_coeff  21  27 ljlambda 0.200000  5.880  0.425676  17.640  0.000
pair_coeff  21  28 ljlambda 0.200000  6.050  0.454054  18.150  0.000
pair_coeff  21  29 ljlambda 0.200000  6.320  0.595946  18.960  0.000
pair_coeff  21  30 ljlambda 0.200000  6.020  0.605405  18.060  0.000
pair_coeff  21  31 ljlambda 0.200000  6.180  0.633784  18.540  0.000
pair_coeff  21  32 ljlambda 0.200000  6.100  0.472973  18.300  0.000
pair_coeff  21  33 ljlambda 0.200000  6.480  0.624324  19.440  0.000
pair_coeff  21  34 ljlambda 0.200000  6.270  0.643243  18.810  0.000
pair_coeff  21  35 ljlambda 0.200000  5.680  0.501352  17.040  0.000
pair_coeff  21  36 ljlambda 0.200000  6.130  0.472973  18.390  0.000
pair_coeff  21  37 ljlambda 0.200000  5.930  0.444594  17.790  0.000
pair_coeff  21  38 ljlambda 0.200000  5.870  0.643243  17.610  0.000
pair_coeff  21  39 ljlambda 0.200000  5.830  0.501352  17.490  0.000
pair_coeff  21  40 ljlambda 0.200000  6.180  0.633784  18.540  0.000
pair_coeff  22  22 ljlambda 0.200000  4.500  0.454054  13.500  0.000
pair_coeff  22  23 ljlambda 0.200000  5.430  0.406757  16.290  0.000
pair_coeff  22  24 ljlambda 0.200000  5.060  0.463513  15.180  0.000
pair_coeff  22  25 ljlambda 0.200000  5.530  0.227027  16.590  0.000
pair_coeff  22  26 ljlambda 0.200000  4.770  0.482432  14.310  0.000
pair_coeff  22  27 ljlambda 0.200000  5.040  0.35946   15.120  0.000
pair_coeff  22  28 ljlambda 0.200000  5.210  0.387838  15.630  0.000
pair_coeff  22  29 ljlambda 0.200000  5.480  0.52973   16.440  0.000
pair_coeff  22  30 ljlambda 0.200000  5.180  0.539189  15.540  0.000
pair_coeff  22  31 ljlambda 0.200000  5.340  0.567568  16.020  0.000
pair_coeff  22  32 ljlambda 0.200000  5.260  0.406757  15.780  0.000
pair_coeff  22  33 ljlambda 0.200000  5.640  0.558108  16.920  0.000
pair_coeff  22  34 ljlambda 0.200000  5.430  0.577027  16.290  0.000
pair_coeff  22  35 ljlambda 0.200000  4.840  0.435135  14.520  0.000
pair_coeff  22  36 ljlambda 0.200000  5.290  0.406757  15.870  0.000
pair_coeff  22  37 ljlambda 0.200000  5.090  0.378378  15.270  0.000
pair_coeff  22  38 ljlambda 0.200000  5.030  0.577027  15.090  0.000
pair_coeff  22  39 ljlambda 0.200000  4.990  0.435135  14.970  0.000
pair_coeff  22  40 ljlambda 0.200000  5.340  0.567568  16.020  0.000
pair_coeff  23  23 ljlambda 0.200000  6.360  0.35946   19.080  35.000
pair_coeff  23  24 ljlambda 0.200000  5.990  0.416216  17.970  0.000
pair_coeff  23  25 ljlambda 0.200000  6.460  0.17973   19.380  35.000
pair_coeff  23  26 ljlambda 0.200000  5.700  0.435135  17.100  0.000
pair_coeff  23  27 ljlambda 0.200000  5.970  0.312162  17.910  35.000
pair_coeff  23  28 ljlambda 0.200000  6.140  0.34054   18.420  35.000
pair_coeff  23  29 ljlambda 0.200000  6.410  0.482432  19.230  0.000
pair_coeff  23  30 ljlambda 0.200000  6.110  0.491892  18.330  0.000
pair_coeff  23  31 ljlambda 0.200000  6.270  0.52027   18.810  0.000
pair_coeff  23  32 ljlambda 0.200000  6.190  0.35946   18.570  0.000
pair_coeff  23  33 ljlambda 0.200000  6.570  0.510811  19.710  0.000
pair_coeff  23  34 ljlambda 0.200000  6.360  0.52973   19.080  0.000
pair_coeff  23  35 ljlambda 0.200000  5.770  0.387838  17.310  0.000
pair_coeff  23  36 ljlambda 0.200000  6.220  0.35946   18.660  35.000
pair_coeff  23  37 ljlambda 0.200000  6.020  0.331081  18.060  0.000
pair_coeff  23  38 ljlambda 0.200000  5.960  0.52973   17.880  0.000
pair_coeff  23  39 ljlambda 0.200000  5.920  0.387838  17.760  0.000
pair_coeff  23  40 ljlambda 0.200000  6.270  0.52027   18.810  0.000
pair_coeff  24  24 ljlambda 0.200000  5.620  0.472973  16.860  0.000
pair_coeff  24  25 ljlambda 0.200000  6.090  0.236487  18.270  0.000
pair_coeff  24  26 ljlambda 0.200000  5.330  0.491892  15.990  0.000
pair_coeff  24  27 ljlambda 0.200000  5.600  0.368919  16.800  0.000
pair_coeff  24  28 ljlambda 0.200000  5.770  0.397297  17.310  0.000
pair_coeff  24  29 ljlambda 0.200000  6.040  0.539189  18.120  0.000
pair_coeff  24  30 ljlambda 0.200000  5.740  0.548649  17.220  0.000
pair_coeff  24  31 ljlambda 0.200000  5.900  0.577027  17.700  0.000
pair_coeff  24  32 ljlambda 0.200000  5.820  0.416216  17.460  0.000
pair_coeff  24  33 ljlambda 0.200000  6.200  0.567568  18.600  0.000
pair_coeff  24  34 ljlambda 0.200000  5.990  0.586487  17.970  0.000
pair_coeff  24  35 ljlambda 0.200000  5.400  0.444595  16.200  0.000
pair_coeff  24  36 ljlambda 0.200000  5.850  0.416216  17.550  0.000
pair_coeff  24  37 ljlambda 0.200000  5.650  0.387838  16.950  0.000
pair_coeff  24  38 ljlambda 0.200000  5.590  0.586487  16.770  0.000
pair_coeff  24  39 ljlambda 0.200000  5.550  0.444595  16.650  0.000
pair_coeff  24  40 ljlambda 0.200000  5.900  0.577027  17.700  0.000
pair_coeff  25  25 ljlambda 0.200000  6.560  0.00         7.363   35.000
pair_coeff  25  26 ljlambda 0.200000  5.800  0.255406  17.400  0.000
pair_coeff  25  27 ljlambda 0.200000  6.070  0.132432  18.210  35.000
pair_coeff  25  28 ljlambda 0.200000  6.240  0.17689   18.720  35.000
pair_coeff  25  29 ljlambda 0.200000  6.510  0.302703  19.530  0.000
pair_coeff  25  30 ljlambda 0.200000  6.210  0.312162  18.630  0.000
pair_coeff  25  31 ljlambda 0.200000  6.370  0.34054   19.110  0.000
pair_coeff  25  32 ljlambda 0.200000  6.290  0.17973   18.870  0.000
pair_coeff  25  33 ljlambda 0.200000  6.670  0.331081  20.010  0.000
pair_coeff  25  34 ljlambda 0.200000  6.460  0.35      19.380  0.000
pair_coeff  25  35 ljlambda 0.200000  5.870  0.208109  17.610  0.000
pair_coeff  25  36 ljlambda 0.200000  6.320  0.17973   18.960  35.000
pair_coeff  25  37 ljlambda 0.200000  6.120  0.151351  18.360  0.000
pair_coeff  25  38 ljlambda 0.200000  6.060  0.385     18.180  0.000
pair_coeff  25  39 ljlambda 0.200000  6.020  0.208109  18.060  0.000
pair_coeff  25  40 ljlambda 0.200000  6.370  0.34054   19.110  0.000
pair_coeff  26  26 ljlambda 0.200000  5.040  0.510811  15.120  0.000
pair_coeff  26  27 ljlambda 0.200000  5.310  0.387838  15.930  0.000
pair_coeff  26  28 ljlambda 0.200000  5.480  0.416216  16.440  0.000
pair_coeff  26  29 ljlambda 0.200000  5.750  0.558108  17.250  0.000
pair_coeff  26  30 ljlambda 0.200000  5.450  0.567568  16.350  0.000
pair_coeff  26  31 ljlambda 0.200000  5.610  0.595946  16.830  0.000
pair_coeff  26  32 ljlambda 0.200000  5.530  0.435135  16.590  0.000
pair_coeff  26  33 ljlambda 0.200000  5.910  0.586487  17.730  0.000
pair_coeff  26  34 ljlambda 0.200000  5.700  0.605405  17.100  0.000
pair_coeff  26  35 ljlambda 0.200000  5.110  0.463514  15.330  0.000
pair_coeff  26  36 ljlambda 0.200000  5.560  0.435135  16.680  0.000
pair_coeff  26  37 ljlambda 0.200000  5.360  0.406757  16.080  0.000
pair_coeff  26  38 ljlambda 0.200000  5.300  0.605405  15.900  0.000
pair_coeff  26  39 ljlambda 0.200000  5.260  0.463514  15.780  0.000
pair_coeff  26  40 ljlambda 0.200000  5.610  0.595946  16.830  0.000
pair_coeff  27  27 ljlambda 0.200000  5.580  0.264865  16.740  35.000
pair_coeff  27  28 ljlambda 0.200000  5.750  0.293243  17.250  35.000
pair_coeff  27  29 ljlambda 0.200000  6.020  0.435135  18.060  0.000
pair_coeff  27  30 ljlambda 0.200000  5.720  0.444594  17.160  0.000
pair_coeff  27  31 ljlambda 0.200000  5.880  0.472973  17.640  0.000
pair_coeff  27  32 ljlambda 0.200000  5.800  0.312162  17.400  0.000
pair_coeff  27  33 ljlambda 0.200000  6.180  0.463513  18.540  0.000
pair_coeff  27  34 ljlambda 0.200000  5.970  0.482432  17.910  0.000
pair_coeff  27  35 ljlambda 0.200000  5.380  0.34054   16.140  0.000
pair_coeff  27  36 ljlambda 0.200000  5.830  0.312162  17.490  35.000
pair_coeff  27  37 ljlambda 0.200000  5.630  0.283783  16.890  0.000
pair_coeff  27  38 ljlambda 0.200000  5.570  0.482432  16.710  0.000
pair_coeff  27  39 ljlambda 0.200000  5.530  0.34054   16.590  0.000
pair_coeff  27  40 ljlambda 0.200000  5.880  0.472973  17.640  0.000
pair_coeff  28  28 ljlambda 0.200000  5.920  0.353786  17.760  35.000
pair_coeff  28  29 ljlambda 0.200000  6.190  0.463513  18.570  0.000
pair_coeff  28  30 ljlambda 0.200000  5.890  0.472973  17.670  0.000
pair_coeff  28  31 ljlambda 0.200000  6.050  0.501351  18.150  0.000
pair_coeff  28  32 ljlambda 0.200000  5.970  0.34054   17.910  0.000
pair_coeff  28  33 ljlambda 0.200000  6.350  0.491892  19.050  0.000
pair_coeff  28  34 ljlambda 0.200000  6.140  0.510811  18.420  0.000
pair_coeff  28  35 ljlambda 0.200000  5.550  0.368919  16.650  0.000
pair_coeff  28  36 ljlambda 0.200000  6.000  0.34054   18.000  35.000
pair_coeff  28  37 ljlambda 0.200000  5.800  0.312162  17.400  0.000
pair_coeff  28  38 ljlambda 0.200000  5.740  0.56189   17.220  0.000
pair_coeff  28  39 ljlambda 0.200000  5.700  0.368919  17.100  0.000
pair_coeff  28  40 ljlambda 0.200000  6.050  0.501351  18.150  0.000
pair_coeff  29  29 ljlambda 0.200000  6.460  0.605405  19.380  0.000
pair_coeff  29  30 ljlambda 0.200000  6.160  0.614865  18.480  0.000
pair_coeff  29  31 ljlambda 0.200000  6.320  0.643243  18.960  0.000
pair_coeff  29  32 ljlambda 0.200000  6.240  0.482432  18.720  0.000
pair_coeff  29  33 ljlambda 0.200000  6.620  0.633784  19.860  0.000
pair_coeff  29  34 ljlambda 0.200000  6.410  0.652703  19.230  0.000
pair_coeff  29  35 ljlambda 0.200000  5.820  0.510811  17.460  0.000
pair_coeff  29  36 ljlambda 0.200000  6.270  0.482432  18.810  0.000
pair_coeff  29  37 ljlambda 0.200000  6.070  0.454054  18.210  0.000
pair_coeff  29  38 ljlambda 0.200000  6.010  0.652703  18.030  0.000
pair_coeff  29  39 ljlambda 0.200000  5.970  0.510811  17.910  0.000
pair_coeff  29  40 ljlambda 0.200000  6.320  0.643243  18.960  0.000
pair_coeff  30  30 ljlambda 0.200000  5.860  0.624324  17.580  0.000
pair_coeff  30  31 ljlambda 0.200000  6.020  0.652703  18.060  0.000
pair_coeff  30  32 ljlambda 0.200000  5.940  0.491892  17.820  0.000
pair_coeff  30  33 ljlambda 0.200000  6.320  0.643243  18.960  0.000
pair_coeff  30  34 ljlambda 0.200000  6.110  0.662162  18.330  0.000
pair_coeff  30  35 ljlambda 0.200000  5.520  0.520271  16.560  0.000
pair_coeff  30  36 ljlambda 0.200000  5.970  0.491892  17.910  0.000
pair_coeff  30  37 ljlambda 0.200000  5.770  0.463513  17.310  0.000
pair_coeff  30  38 ljlambda 0.200000  5.710  0.662162  17.130  0.000
pair_coeff  30  39 ljlambda 0.200000  5.670  0.520271  17.010  0.000
pair_coeff  30  40 ljlambda 0.200000  6.020  0.652703  18.060  0.000
pair_coeff  31  31 ljlambda 0.200000  6.180  0.681081  18.540  0.000
pair_coeff  31  32 ljlambda 0.200000  6.100  0.52027   18.300  0.000
pair_coeff  31  33 ljlambda 0.200000  6.480  0.671621  19.440  0.000
pair_coeff  31  34 ljlambda 0.200000  6.270  0.69054   18.810  0.000
pair_coeff  31  35 ljlambda 0.200000  5.680  0.548649  17.040  0.000
pair_coeff  31  36 ljlambda 0.200000  6.130  0.52027   18.390  0.000
pair_coeff  31  37 ljlambda 0.200000  5.930  0.491892  17.790  0.000
pair_coeff  31  38 ljlambda 0.200000  5.870  0.69054   17.610  0.000
pair_coeff  31  39 ljlambda 0.200000  5.830  0.548649  17.490  0.000
pair_coeff  31  40 ljlambda 0.200000  6.180  0.681081  18.540  0.000
pair_coeff  32  32 ljlambda 0.200000  6.020  0.35946   18.060  0.000
pair_coeff  32  33 ljlambda 0.200000  6.400  0.510811  19.200  0.000
pair_coeff  32  34 ljlambda 0.200000  6.190  0.52973   18.570  0.000
pair_coeff  32  35 ljlambda 0.200000  5.600  0.387838  16.800  0.000
pair_coeff  32  36 ljlambda 0.200000  6.050  0.35946   18.150  0.000
pair_coeff  32  37 ljlambda 0.200000  5.850  0.331081  17.550  0.000
pair_coeff  32  38 ljlambda 0.200000  5.790  0.52973   17.370  0.000
pair_coeff  32  39 ljlambda 0.200000  5.750  0.387838  17.250  0.000
pair_coeff  32  40 ljlambda 0.200000  6.100  0.52027   18.300  0.000
pair_coeff  33  33 ljlambda 0.200000  6.780  0.662162  20.340  0.000
pair_coeff  33  34 ljlambda 0.200000  6.570  0.681081  19.710  0.000
pair_coeff  33  35 ljlambda 0.200000  5.980  0.539189  17.940  0.000
pair_coeff  33  36 ljlambda 0.200000  6.430  0.510811  19.290  0.000
pair_coeff  33  37 ljlambda 0.200000  6.230  0.482432  18.690  0.000
pair_coeff  33  38 ljlambda 0.200000  6.170  0.681081  18.510  0.000
pair_coeff  33  39 ljlambda 0.200000  6.130  0.539189  18.390  0.000
pair_coeff  33  40 ljlambda 0.200000  6.480  0.671621  19.440  0.000
pair_coeff  34  34 ljlambda 0.200000  6.360  0.7       19.080  0.000
pair_coeff  34  35 ljlambda 0.200000  5.770  0.558108  17.310  0.000
pair_coeff  34  36 ljlambda 0.200000  6.220  0.52973   18.660  0.000
pair_coeff  34  37 ljlambda 0.200000  6.020  0.501351  18.060  0.000
pair_coeff  34  38 ljlambda 0.200000  5.960  0.7       17.880  0.000
pair_coeff  34  39 ljlambda 0.200000  5.920  0.558108  17.760  0.000
pair_coeff  34  40 ljlambda 0.200000  6.270  0.69054   18.810  0.000
pair_coeff  35  35 ljlambda 0.200000  5.180  0.416216  15.540  0.000
pair_coeff  35  36 ljlambda 0.200000  5.630  0.387838  16.890  0.000
pair_coeff  35  37 ljlambda 0.200000  5.430  0.35946   16.290  0.000
pair_coeff  35  38 ljlambda 0.200000  5.370  0.558108  16.110  0.000
pair_coeff  35  39 ljlambda 0.200000  5.330  0.416216  15.990  0.000
pair_coeff  35  40 ljlambda 0.200000  5.680  0.548649  17.040  0.000
pair_coeff  36  36 ljlambda 0.200000  6.080  0.35946   18.240  35.000
pair_coeff  36  37 ljlambda 0.200000  5.880  0.331081  17.640  0.000
pair_coeff  36  38 ljlambda 0.200000  5.820  0.52973   17.460  0.000
pair_coeff  36  39 ljlambda 0.200000  5.780  0.387838  17.340  0.000
pair_coeff  36  40 ljlambda 0.200000  6.130  0.52027   18.390  0.000
pair_coeff  37  37 ljlambda 0.200000  5.680  0.302702  17.040  0.000
pair_coeff  37  38 ljlambda 0.200000  5.620  0.501351  16.860  0.000
pair_coeff  37  39 ljlambda 0.200000  5.580  0.35946   16.740  0.000
pair_coeff  37  40 ljlambda 0.200000  5.930  0.491892  17.790  0.000
pair_coeff  38  38 ljlambda 0.200000  5.560  0.70      16.680  0.000
pair_coeff  38  39 ljlambda 0.200000  5.520  0.558108  16.560  0.000
pair_coeff  38  40 ljlambda 0.200000  5.870  0.69054   17.610  0.000
pair_coeff  39  39 ljlambda 0.200000  5.480  0.416216  16.440  0.000
pair_coeff  39  40 ljlambda 0.200000  5.830  0.548649  17.490  0.000
pair_coeff  40  40 ljlambda 0.200000  6.180  0.681081  18.540  0.000
pair_coeff 1 41 ljlambda 0.2000000    7.310  0.39200   21.930 35.0 
pair_coeff 2 41 ljlambda 0.2000000    6.470  0.29750   19.410 35.0 
pair_coeff 3 41 ljlambda 0.2000000    7.400  0.23000   22.200 35.0 
pair_coeff 4 41 ljlambda 0.2000000    7.030  0.31100   21.090 35.0 
pair_coeff 5 41 ljlambda 0.2000000    7.500  -0.0270   22.500 35.0 
pair_coeff 6 41 ljlambda 0.2000000    6.740  0.33800   20.220 35.0 
pair_coeff 7 41 ljlambda 0.2000000    7.010  0.16200   21.030 35.0 
pair_coeff 8 41 ljlambda 0.2000000    7.180  0.20250   21.540 35.0 
pair_coeff 9 41 ljlambda 0.2000000    7.450  0.40550   22.350 35.0 
pair_coeff 10 41 ljlambda 0.2000000   7.150  0.41900   21.450 35.0 
pair_coeff 11 41 ljlambda 0.2000000   7.310  0.45950   21.930 35.0 
pair_coeff 12 41 ljlambda 0.2000000   7.230  0.23000   21.690 35.0 
pair_coeff 13 41 ljlambda 0.2000000   7.610  0.44600   22.830 35.0 
pair_coeff 14 41 ljlambda 0.2000000   7.400  0.47300   22.200 35.0 
pair_coeff 15 41 ljlambda 0.2000000   6.810  0.27050   20.430 35.0 
pair_coeff 16 41 ljlambda 0.2000000   7.260  0.23000   21.780 35.0 
pair_coeff 17 41 ljlambda 0.2000000   7.060  0.18900   21.180 35.0 
pair_coeff 18 41 ljlambda 0.2000000   7.000  0.47300   21.000 35.0 
pair_coeff 19 41 ljlambda 0.2000000   6.960  0.27050   20.880 35.0 
pair_coeff 20 41 ljlambda 0.2000000   7.310  0.32165   21.930 35.0 
pair_coeff 21 41 ljlambda 0.2000000   7.310  0.27440   21.930 35.0 
pair_coeff 22 41 ljlambda 0.2000000   6.470  0.20825   19.410 35.0 
pair_coeff 23 41 ljlambda 0.2000000   7.400  0.16100   22.200 35.0 
pair_coeff 24 41 ljlambda 0.2000000   7.030  0.21770   21.090 35.0 
pair_coeff 25 41 ljlambda 0.2000000   7.500  -0.0189   22.500 35.0 
pair_coeff 26 41 ljlambda 0.2000000   6.740  0.23660   20.220 35.0 
pair_coeff 27 41 ljlambda 0.2000000   7.010  0.11340   21.030 35.0 
pair_coeff 28 41 ljlambda 0.2000000   7.180  0.14175   21.540 35.0 
pair_coeff 29 41 ljlambda 0.2000000   7.450  0.28385   22.350 35.0 
pair_coeff 30 41 ljlambda 0.2000000   7.150  0.29330   21.450 35.0 
pair_coeff 31 41 ljlambda 0.2000000   7.310  0.32165   21.930 35.0 
pair_coeff 32 41 ljlambda 0.2000000   7.230  0.16100   21.690 35.0 
pair_coeff 33 41 ljlambda 0.2000000   7.610  0.31220   22.830 35.0 
pair_coeff 34 41 ljlambda 0.2000000   7.400  0.33110   22.200 35.0 
pair_coeff 35 41 ljlambda 0.2000000   6.810  0.18935   20.430 35.0 
pair_coeff 36 41 ljlambda 0.2000000   7.260  0.16100   21.780 35.0 
pair_coeff 37 41 ljlambda 0.2000000   7.060  0.13230   21.180 35.0 
pair_coeff 38 41 ljlambda 0.2000000   7.000  0.33110   21.000 35.0 
pair_coeff 39 41 ljlambda 0.2000000   6.960  0.18935   20.880 35.0 
pair_coeff 40 41 ljlambda 0.2000000   7.310  0.32165   21.930 35.0 
pair_coeff 1 42 ljlambda 0.2000000   7.200  0.40550   21.600 35.0 
pair_coeff 2 42 ljlambda 0.2000000   6.360  0.31100   19.080 35.0 
pair_coeff 3 42 ljlambda 0.2000000   7.290  0.24350   21.870 35.0 
pair_coeff 4 42 ljlambda 0.2000000   6.920  0.32450   20.760 35.0 
pair_coeff 5 42 ljlambda 0.2000000   7.390  -0.01350   22.170 35.0 
pair_coeff 6 42 ljlambda 0.2000000   6.630  0.35150   19.890 35.0 
pair_coeff 7 42 ljlambda 0.2000000   6.900  0.17550   20.700 35.0 
pair_coeff 8 42 ljlambda 0.2000000   7.070  0.21600   21.210 35.0 
pair_coeff 9 42 ljlambda 0.2000000   7.340  0.41900   22.020 35.0 
pair_coeff 10 42 ljlambda 0.2000000   7.040  0.43250   21.120 35.0 
pair_coeff 11 42 ljlambda 0.2000000   7.200  0.47300   21.600 35.0 
pair_coeff 12 42 ljlambda 0.2000000   7.120  0.24350   21.360 35.0 
pair_coeff 13 42 ljlambda 0.2000000   7.500  0.45950   22.500 35.0 
pair_coeff 14 42 ljlambda 0.2000000   7.290  0.48650   21.870 35.0 
pair_coeff 15 42 ljlambda 0.2000000   6.700  0.28400   20.100 35.0 
pair_coeff 16 42 ljlambda 0.2000000   7.150  0.24350   21.450 35.0 
pair_coeff 17 42 ljlambda 0.2000000   6.950  0.20250   20.850 35.0 
pair_coeff 18 42 ljlambda 0.2000000   6.890  0.48650   20.670 35.0 
pair_coeff 19 42 ljlambda 0.2000000   6.850  0.28400   20.550 35.0 
pair_coeff 20 42 ljlambda 0.2000000   7.200  0.33110   21.600 35.0 
pair_coeff 21 42 ljlambda 0.2000000   7.200  0.28385   21.600 35.0 
pair_coeff 22 42 ljlambda 0.2000000   6.360  0.21770   19.080 35.0 
pair_coeff 23 42 ljlambda 0.2000000   7.290  0.17045   21.870 35.0 
pair_coeff 24 42 ljlambda 0.2000000   6.920  0.22715   20.760 35.0 
pair_coeff 25 42 ljlambda 0.2000000   7.390  -0.0094   22.170 35.0 
pair_coeff 26 42 ljlambda 0.2000000   6.630  0.24605   19.890 35.0 
pair_coeff 27 42 ljlambda 0.2000000   6.900  0.12285   20.700 35.0 
pair_coeff 28 42 ljlambda 0.2000000   7.070  0.15120   21.210 35.0 
pair_coeff 29 42 ljlambda 0.2000000   7.340  0.29330   22.020 35.0 
pair_coeff 30 42 ljlambda 0.2000000   7.040  0.30275   21.120 35.0 
pair_coeff 31 42 ljlambda 0.2000000   7.200  0.33110   21.600 35.0 
pair_coeff 32 42 ljlambda 0.2000000   7.120  0.17045   21.360 35.0 
pair_coeff 33 42 ljlambda 0.2000000   7.500  0.32165   22.500 35.0 
pair_coeff 34 42 ljlambda 0.2000000   7.290  0.34055   21.870 35.0 
pair_coeff 35 42 ljlambda 0.2000000   6.700  0.19880   20.100 35.0 
pair_coeff 36 42 ljlambda 0.2000000   7.150  0.17045   21.450 35.0 
pair_coeff 37 42 ljlambda 0.2000000   6.950  0.14175   20.850 35.0 
pair_coeff 38 42 ljlambda 0.2000000   6.890  0.34055   20.670 35.0 
pair_coeff 39 42 ljlambda 0.2000000   6.850  0.19880   20.550 35.0 
pair_coeff 40 42 ljlambda 0.2000000   7.200  0.33110   21.600 35.0 
pair_coeff 1 43 ljlambda 0.2000000   7.345  0.32450   22.035 35.0 
pair_coeff 2 43 ljlambda 0.2000000   6.505  0.23000   19.515 35.0 
pair_coeff 3 43 ljlambda 0.2000000   7.435  0.16250   22.305 35.0 
pair_coeff 4 43 ljlambda 0.2000000   7.065  0.24350   21.195 35.0 
pair_coeff 5 43 ljlambda 0.2000000   7.535  -0.09450   22.605 35.0 
pair_coeff 6 43 ljlambda 0.2000000   6.775  0.27050   20.325 35.0 
pair_coeff 7 43 ljlambda 0.2000000   7.045  0.09450   21.135 35.0 
pair_coeff 8 43 ljlambda 0.2000000   7.215  0.13500   21.645 35.0 
pair_coeff 9 43 ljlambda 0.2000000   7.485  0.33800   22.455 35.0 
pair_coeff 10 43 ljlambda 0.2000000   7.185  0.35150   21.555 35.0 
pair_coeff 11 43 ljlambda 0.2000000   7.345  0.39200   22.035 35.0 
pair_coeff 12 43 ljlambda 0.2000000   7.265  0.16250   21.795 35.0 
pair_coeff 13 43 ljlambda 0.2000000   7.645  0.37850   22.935 35.0 
pair_coeff 14 43 ljlambda 0.2000000   7.435  0.40550   22.305 35.0 
pair_coeff 15 43 ljlambda 0.2000000   6.845  0.20300   20.535 35.0 
pair_coeff 16 43 ljlambda 0.2000000   7.295  0.16250   21.885 35.0 
pair_coeff 17 43 ljlambda 0.2000000   7.095  0.12150   21.285 35.0 
pair_coeff 18 43 ljlambda 0.2000000   7.035  0.40550   21.105 35.0 
pair_coeff 19 43 ljlambda 0.2000000   6.995  0.20300   20.985 35.0 
pair_coeff 20 43 ljlambda 0.2000000   7.345  0.27440   22.035 35.0 
pair_coeff 21 43 ljlambda 0.2000000   7.345  0.22715   22.035 35.0 
pair_coeff 22 43 ljlambda 0.2000000   6.505  0.16100   19.515 35.0 
pair_coeff 23 43 ljlambda 0.2000000   7.435  0.11375   22.305 35.0 
pair_coeff 24 43 ljlambda 0.2000000   7.065  0.17045   21.195 35.0 
pair_coeff 25 43 ljlambda 0.2000000   7.535  -0.0661   22.605 35.0 
pair_coeff 26 43 ljlambda 0.2000000   6.775  0.18935   20.325 35.0 
pair_coeff 27 43 ljlambda 0.2000000   7.045  0.06615   21.135 35.0 
pair_coeff 28 43 ljlambda 0.2000000   7.215  0.09450   21.645 35.0 
pair_coeff 29 43 ljlambda 0.2000000   7.485  0.23660   22.455 35.0 
pair_coeff 30 43 ljlambda 0.2000000   7.185  0.24605   21.555 35.0 
pair_coeff 31 43 ljlambda 0.2000000   7.345  0.27440   22.035 35.0 
pair_coeff 32 43 ljlambda 0.2000000   7.265  0.11375   21.795 35.0 
pair_coeff 33 43 ljlambda 0.2000000   7.645  0.26495   22.935 35.0 
pair_coeff 34 43 ljlambda 0.2000000   7.435  0.28385   22.305 35.0 
pair_coeff 35 43 ljlambda 0.2000000   6.845  0.14210   20.535 35.0 
pair_coeff 36 43 ljlambda 0.2000000   7.295  0.11375   21.885 35.0 
pair_coeff 37 43 ljlambda 0.2000000   7.095  0.08505   21.285 35.0 
pair_coeff 38 43 ljlambda 0.2000000   7.035  0.28385   21.105 35.0 
pair_coeff 39 43 ljlambda 0.2000000   6.995  0.14210   20.985 35.0 
pair_coeff 40 43 ljlambda 0.2000000   7.345  0.27440   22.035 35.0 
pair_coeff 1 44 ljlambda 0.2000000   7.175  0.40550   21.525 35.0 
pair_coeff 2 44 ljlambda 0.2000000   6.335  0.31100   19.005 35.0 
pair_coeff 3 44 ljlambda 0.2000000   7.265  0.24350   21.795 35.0 
pair_coeff 4 44 ljlambda 0.2000000   6.895  0.32450   20.685 35.0 
pair_coeff 5 44 ljlambda 0.2000000   7.365  -0.01350   22.095 35.0 
pair_coeff 6 44 ljlambda 0.2000000   6.605  0.35150   19.815 35.0 
pair_coeff 7 44 ljlambda 0.2000000   6.875  0.17550   20.625 35.0 
pair_coeff 8 44 ljlambda 0.2000000   7.045  0.21600   21.135 35.0 
pair_coeff 9 44 ljlambda 0.2000000   7.315  0.41900   21.945 35.0 
pair_coeff 10 44 ljlambda 0.2000000   7.015  0.43250   21.045 35.0 
pair_coeff 11 44 ljlambda 0.2000000   7.175  0.47300   21.525 35.0 
pair_coeff 12 44 ljlambda 0.2000000   7.095  0.24350   21.285 35.0 
pair_coeff 13 44 ljlambda 0.2000000   7.475  0.45950   22.425 35.0 
pair_coeff 14 44 ljlambda 0.2000000   7.265  0.48650   21.795 35.0 
pair_coeff 15 44 ljlambda 0.2000000   6.675  0.28400   20.025 35.0 
pair_coeff 16 44 ljlambda 0.2000000   7.125  0.24350   21.375 35.0 
pair_coeff 17 44 ljlambda 0.2000000   6.925  0.20250   20.775 35.0 
pair_coeff 18 44 ljlambda 0.2000000   6.865  0.48650   20.595 35.0 
pair_coeff 19 44 ljlambda 0.2000000   6.825  0.28400   20.475 35.0 
pair_coeff 20 44 ljlambda 0.2000000   7.175  0.33110   21.525 35.0 
pair_coeff 21 44 ljlambda 0.2000000   7.175  0.28385   21.525 35.0 
pair_coeff 22 44 ljlambda 0.2000000   6.335  0.21770   19.005 35.0 
pair_coeff 23 44 ljlambda 0.2000000   7.265  0.17045   21.795 35.0 
pair_coeff 24 44 ljlambda 0.2000000   6.895  0.22715   20.685 35.0 
pair_coeff 25 44 ljlambda 0.2000000   7.365  -0.0094   22.095 35.0 
pair_coeff 26 44 ljlambda 0.2000000   6.605  0.24605   19.815 35.0 
pair_coeff 27 44 ljlambda 0.2000000   6.875  0.12285   20.625 35.0 
pair_coeff 28 44 ljlambda 0.2000000   7.045  0.15120   21.135 35.0 
pair_coeff 29 44 ljlambda 0.2000000   7.315  0.29330   21.945 35.0 
pair_coeff 30 44 ljlambda 0.2000000   7.015  0.30275   21.045 35.0 
pair_coeff 31 44 ljlambda 0.2000000   7.175  0.33110   21.525 35.0 
pair_coeff 32 44 ljlambda 0.2000000   7.095  0.17045   21.285 35.0 
pair_coeff 33 44 ljlambda 0.2000000   7.475  0.32165   22.425 35.0 
pair_coeff 34 44 ljlambda 0.2000000   7.265  0.34055   21.795 35.0 
pair_coeff 35 44 ljlambda 0.2000000   6.675  0.19880   20.025 35.0 
pair_coeff 36 44 ljlambda 0.2000000   7.125  0.17045   21.375 35.0 
pair_coeff 37 44 ljlambda 0.2000000   6.925  0.14175   20.775 35.0 
pair_coeff 38 44 ljlambda 0.2000000   6.865  0.34055   20.595 35.0 
pair_coeff 39 44 ljlambda 0.2000000   6.825  0.19880   20.475 35.0 
pair_coeff 40 44 ljlambda 0.2000000   7.175  0.33110   21.525 35.0 
pair_coeff 41 41 ljlambda 0.2000000   8.440  -0.0540   25.320 35.0 
pair_coeff 41 42 ljlambda 0.2000000   8.330  -0.0405   24.990 35.0 
pair_coeff 41 43 ljlambda 0.2000000   8.475  -0.1215   25.425 35.0 
pair_coeff 41 44 ljlambda 0.2000000   8.305  -0.0405   24.915 35.0 
pair_coeff 42 42 ljlambda 0.2000000   8.220  -0.0270   24.660 35.0 
pair_coeff 42 43 ljlambda 0.2000000   8.365  -0.1080   25.095 35.0 
pair_coeff 42 44 ljlambda 0.2000000   8.195  -0.0270   24.585 35.0 
pair_coeff 43 43 ljlambda 0.2000000   8.510  -0.1890   25.530 35.0 
pair_coeff 44 44 ljlambda 0.2000000   8.170  -0.0270   24.510 35.0 

pair_coeff 1  45 ljlambda 0.2000000   5.680  0.716217  17.040  0.000
pair_coeff 2  45 ljlambda 0.2000000   4.840  0.621622  14.520  0.000
pair_coeff 3  45 ljlambda 0.2000000   5.770  0.554054  17.310  0.000
pair_coeff 4  45 ljlambda 0.2000000   5.400  0.635136  16.200  0.000
pair_coeff 5  45 ljlambda 0.2000000   5.870  0.297298  17.610  0.000
pair_coeff 6  45 ljlambda 0.2000000   5.110  0.662163  15.330  0.000
pair_coeff 7  45 ljlambda 0.2000000   5.380  0.486486  16.140  0.000
pair_coeff 8  45 ljlambda 0.2000000   5.550  0.527027  16.650  0.000
pair_coeff 9  45 ljlambda 0.2000000   5.820  0.729730  17.460  0.000
pair_coeff 10 45 ljlambda 0.2000000   5.520  0.743244  16.560  0.000
pair_coeff 11 45 ljlambda 0.2000000   5.680  0.783784  17.040  0.000
pair_coeff 12 45 ljlambda 0.2000000   5.600  0.554054  16.800  0.000
pair_coeff 13 45 ljlambda 0.2000000   5.980  0.770270  17.940  0.000
pair_coeff 14 45 ljlambda 0.2000000   5.770  0.797297  17.310  0.000
pair_coeff 15 45 ljlambda 0.2000000   5.180  0.594595  15.540  0.000 
pair_coeff 16 45 ljlambda 0.2000000   5.630  0.554054  16.890  0.000 
pair_coeff 17 45 ljlambda 0.2000000   5.430  0.513514  16.290  0.000 
pair_coeff 18 45 ljlambda 0.2000000   5.370  0.797297  16.110  0.000 
pair_coeff 19 45 ljlambda 0.2000000   5.330  0.594595  15.990  0.000 
pair_coeff 20 45 ljlambda 0.2000000   5.680  0.783784  17.040  0.000 
pair_coeff 21 45 ljlambda 0.2000000   5.680  0.501352  17.040  0.000 
pair_coeff 22 45 ljlambda 0.2000000   4.840  0.435135  14.520  0.000 
pair_coeff 23 45 ljlambda 0.2000000   5.770  0.387838  17.310  0.000 
pair_coeff 24 45 ljlambda 0.2000000   5.400  0.444595  16.200  0.000 
pair_coeff 25 45 ljlambda 0.2000000   5.870  0.208109  17.610  0.000 
pair_coeff 26 45 ljlambda 0.2000000   5.110  0.463514  15.330  0.000 
pair_coeff 27 45 ljlambda 0.2000000   5.380  0.34054   16.140  0.000 
pair_coeff 28 45 ljlambda 0.2000000   5.550  0.368919  16.650  0.000 
pair_coeff 29 45 ljlambda 0.2000000   5.820  0.510811  17.460  0.000 
pair_coeff 30 45 ljlambda 0.2000000   5.520  0.520271  16.560  0.000 
pair_coeff 31 45 ljlambda 0.2000000   5.680  0.548649  17.040  0.000 
pair_coeff 32 45 ljlambda 0.2000000   5.600  0.387838  16.800  0.000 
pair_coeff 33 45 ljlambda 0.2000000   5.980  0.539189  17.940  0.000 
pair_coeff 34 45 ljlambda 0.2000000   5.770  0.558108  17.310  0.000 
pair_coeff 35 45 ljlambda 0.2000000   5.180  0.416216  15.540  0.000 
pair_coeff 36 45 ljlambda 0.2000000   5.630  0.387838  16.890  0.000 
pair_coeff 37 45 ljlambda 0.2000000   5.430  0.35946   16.290  0.000 
pair_coeff 38 45 ljlambda 0.2000000   5.370  0.558108  16.110  0.000 
pair_coeff 39 45 ljlambda 0.2000000   5.330  0.416216  15.990  0.000 
pair_coeff 40 45 ljlambda 0.2000000   5.680  0.548649  17.040  0.000 
pair_coeff 41 45 ljlambda 0.2000000   6.810  0.27050   20.430  0.000
pair_coeff 42 45 ljlambda 0.2000000   6.700  0.28400   20.100  0.0 
pair_coeff 43 45 ljlambda  0.2000000  6.845  0.20300   20.535  0.0 
pair_coeff 44 45 ljlambda  0.2000000  6.675  0.28400   20.025  0.0  
pair_coeff 45 45 ljlambda  0.2000000  5.180  0.594595  15.540  0.000 

pair_coeff 1  46 ljlambda 0.2000000   5.84999990      0.537193298       17.5499992      0.0
pair_coeff 2  46 ljlambda 0.2000000   5.01000023      0.470977157       15.0300007      0.0
pair_coeff 3  46 ljlambda 0.2000000   5.94000006      0.423679918       17.8199997      0.0
pair_coeff 4  46 ljlambda 0.2000000   5.56999969      0.480436593       16.7099991      0.0
pair_coeff 5  46 ljlambda 0.2000000   6.03999996      0.243950009       18.1199989      0.0
pair_coeff 6  46 ljlambda 0.2000000   5.27999973      0.499355495       15.8399992      0.0
pair_coeff 7  46 ljlambda 0.2000000   5.55000019      0.376382321       16.6500015      0.0
pair_coeff 8  46 ljlambda 0.2000000   5.72000027      0.404760689       17.1599998      0.0
pair_coeff 9  46 ljlambda 0.2000000   5.98999977      0.546652794       17.9699993      0.0
pair_coeff 10 46 ljlambda 0.2000000   5.69000006      0.556112170       17.0699997      0.0
pair_coeff 11 46 ljlambda 0.2000000   5.84999990      0.584490538       17.5499992      0.0
pair_coeff 12 46 ljlambda 0.2000000   5.76999998      0.423679918       17.3099995      0.0
pair_coeff 13 46 ljlambda 0.2000000   6.15000010      0.575031102       18.4500008      0.0
pair_coeff 14 46 ljlambda 0.2000000   5.94000006      0.593949974       17.8199997      0.0
pair_coeff 15 46 ljlambda 0.2000000   5.34999990      0.452058226       16.0499992      0.0 
pair_coeff 16 46 ljlambda 0.2000000   5.80000019      0.423679918       17.4000015      0.0 
pair_coeff 17 46 ljlambda 0.2000000   5.59999990      0.395301193       16.7999992      0.0 
pair_coeff 18 46 ljlambda 0.2000000   5.53999996      0.593949974       16.6199989      0.0 
pair_coeff 19 46 ljlambda 0.2000000   5.50000000      0.452058226       16.5000000      0.0 
pair_coeff 20 46 ljlambda 0.2000000   5.84999990      0.584490538       17.5499992      0.0 
pair_coeff 21 46 ljlambda 0.2000000   5.84999990      0.537193298       17.5499992      0.0 
pair_coeff 22 46 ljlambda 0.2000000   5.01000023      0.470977157       15.0300007      0.0 
pair_coeff 23 46 ljlambda 0.2000000   5.94000006      0.423679918       17.8199997      0.0 
pair_coeff 24 46 ljlambda 0.2000000   5.56999969      0.480436593       16.7099991      0.0 
pair_coeff 25 46 ljlambda 0.2000000   6.03999996      0.243950009       18.1199989      0.0 
pair_coeff 26 46 ljlambda 0.2000000   5.27999973      0.499355495       15.8399992      0.0 
pair_coeff 27 46 ljlambda 0.2000000   5.55000019      0.376382321       16.6500015      0.0 
pair_coeff 28 46 ljlambda 0.2000000   5.72000027      0.404760689       17.1599998      0.0 
pair_coeff 29 46 ljlambda 0.2000000   5.98999977      0.546652794       17.9699993      0.0 
pair_coeff 30 46 ljlambda 0.2000000   5.69000006      0.556112170       17.0699997      0.0 
pair_coeff 31 46 ljlambda 0.2000000   5.84999990      0.584490538       17.5499992      0.0 
pair_coeff 32 46 ljlambda 0.2000000   5.76999998      0.423679918       17.3099995      0.0 
pair_coeff 33 46 ljlambda 0.2000000   6.15000010      0.575031102       18.4500008      0.0 
pair_coeff 34 46 ljlambda 0.2000000   5.94000006      0.593949974       17.8199997      0.0 
pair_coeff 35 46 ljlambda 0.2000000   5.34999990      0.452058226       16.0499992      0.0 
pair_coeff 36 46 ljlambda 0.2000000   5.80000019      0.423679918       17.4000015      0.0 
pair_coeff 37 46 ljlambda 0.2000000   5.59999990      0.395301193       16.7999992      0.0 
pair_coeff 38 46 ljlambda 0.2000000   5.53999996      0.593949974       16.6199989      0.0 
pair_coeff 39 46 ljlambda 0.2000000   5.50000000      0.452058226       16.5000000      0.0 
pair_coeff 40 46 ljlambda 0.2000000   5.84999990      0.584490538       17.5499992      0.0 
pair_coeff 41 46 ljlambda 0.2000000   6.97999954      0.225050002       20.9399986      0.0
pair_coeff 42 46 ljlambda 0.2000000   6.86999989      0.234500006       20.6100006      0.0
pair_coeff 43 46 ljlambda 0.2000000   7.01500034      0.177800000       21.0450020      0.0
pair_coeff 44 46 ljlambda 0.2000000   6.84500027      0.234500006       20.5349998      0.0
pair_coeff 45 46 ljlambda 0.2000000   5.18000000      0.594595          15.5400000      0.0
pair_coeff 46 46 ljlambda 0.2000000   5.52000000      2.800000          16.5600000      0.0 

pair_coeff 1  47 ljlambda 0.2000000   5.680  0.716217  17.040  0.000
pair_coeff 2  47 ljlambda 0.2000000   4.840  0.621622  14.520  0.000
pair_coeff 3  47 ljlambda 0.2000000   5.770  0.554054  17.310  0.000
pair_coeff 4  47 ljlambda 0.2000000   5.400  0.635136  16.200  0.000
pair_coeff 5  47 ljlambda 0.2000000   5.870  0.297298  17.610  0.000
pair_coeff 6  47 ljlambda 0.2000000   5.110  0.662163  15.330  0.000
pair_coeff 7  47 ljlambda 0.2000000   5.380  0.486486  16.140  0.000
pair_coeff 8  47 ljlambda 0.2000000   5.550  0.527027  16.650  0.000
pair_coeff 9  47 ljlambda 0.2000000   5.820  0.729730  17.460  0.000
pair_coeff 10 47 ljlambda 0.2000000   5.520  0.743244  16.560  0.000
pair_coeff 11 47 ljlambda 0.2000000   5.680  0.783784  17.040  0.000
pair_coeff 12 47 ljlambda 0.2000000   5.600  0.554054  16.800  0.000
pair_coeff 13 47 ljlambda 0.2000000   5.980  0.770270  17.940  0.000
pair_coeff 14 47 ljlambda 0.2000000   5.770  0.797297  17.310  0.000
pair_coeff 15 47 ljlambda 0.2000000   5.180  0.594595  15.540  0.000
pair_coeff 16 47 ljlambda 0.2000000   5.630  0.554054  16.890  0.000
pair_coeff 17 47 ljlambda 0.2000000   5.430  0.513514  16.290  0.000
pair_coeff 18 47 ljlambda 0.2000000   5.370  0.797297  16.110  0.000
pair_coeff 19 47 ljlambda 0.2000000   5.330  0.594595  15.990  0.000
pair_coeff 20 47 ljlambda 0.2000000   5.680  0.783784  17.040  0.000
pair_coeff 21 47 ljlambda 0.2000000   5.680  0.501352  17.040  0.000
pair_coeff 22 47 ljlambda 0.2000000   4.840  0.435135  14.520  0.000
pair_coeff 23 47 ljlambda 0.2000000   5.770  0.387838  17.310  0.000
pair_coeff 24 47 ljlambda 0.2000000   5.400  0.444595  16.200  0.000
pair_coeff 25 47 ljlambda 0.2000000   5.870  0.208109  17.610  0.000
pair_coeff 26 47 ljlambda 0.2000000   5.110  0.463514  15.330  0.000
pair_coeff 27 47 ljlambda 0.2000000   5.380  0.34054   16.140  0.000
pair_coeff 28 47 ljlambda 0.2000000   5.550  0.368919  16.650  0.000
pair_coeff 29 47 ljlambda 0.2000000   5.820  0.510811  17.460  0.000
pair_coeff 30 47 ljlambda 0.2000000   5.520  0.520271  16.560  0.000
pair_coeff 31 47 ljlambda 0.2000000   5.680  0.548649  17.040  0.000
pair_coeff 32 47 ljlambda 0.2000000   5.600  0.387838  16.800  0.000
pair_coeff 33 47 ljlambda 0.2000000   5.980  0.539189  17.940  0.000
pair_coeff 34 47 ljlambda 0.2000000   5.770  0.558108  17.310  0.000
pair_coeff 35 47 ljlambda 0.2000000   5.180  0.416216  15.540  0.000
pair_coeff 36 47 ljlambda 0.2000000   5.630  0.387838  16.890  0.000
pair_coeff 37 47 ljlambda 0.2000000   5.430  0.35946   16.290  0.000
pair_coeff 38 47 ljlambda 0.2000000   5.370  0.558108  16.110  0.000
pair_coeff 39 47 ljlambda 0.2000000   5.330  0.416216  15.990  0.000
pair_coeff 40 47 ljlambda 0.2000000   5.680  0.548649  17.040  0.000
pair_coeff 41 47 ljlambda 0.2000000   6.810  0.27050   20.430  0.000
pair_coeff 42 47 ljlambda 0.2000000   6.700  0.28400   20.100  0.0 
pair_coeff 43 47 ljlambda  0.2000000  6.845  0.20300   20.535  0.0 
pair_coeff 44 47 ljlambda  0.2000000  6.675  0.28400   20.025  0.0  
pair_coeff 45 47 ljlambda  0.2000000  5.180  0.594595  15.540  0.000
pair_coeff 46 47 ljlambda  0.2000000  5.180  0.416     15.540  0.000
pair_coeff 47 47 ljlambda  0.2000000  5.180  0.594595  15.540  0.000

pair_coeff 1  48 ljlambda 0.2000000   5.84999990      0.524243295       17.5499992      0.0
pair_coeff 2  48 ljlambda 0.2000000   5.01000023      0.458027154       15.0300007      0.0
pair_coeff 3  48 ljlambda 0.2000000   5.94000006      0.410729885       17.8199997      0.0
pair_coeff 4  48 ljlambda 0.2000000   5.56999969      0.467486590       16.7099991      0.0
pair_coeff 5  48 ljlambda 0.2000000   6.03999996      0.231000006       18.1199989      0.0
pair_coeff 6  48 ljlambda 0.2000000   5.27999973      0.486405492       15.8399992      0.0
pair_coeff 7  48 ljlambda 0.2000000   5.55000019      0.363432288       16.6500015      0.0
[...]
24762000    4787.8853   -3804.3997    12.470328    8579.8147    1.6348564    24509.613    378.44467    1000.8745     200.2066    203.55812    3.8838432 -0.066226129    1.0869522    75.046865   0.12929468 
24763000     4711.848   -3821.7391     13.77331    8519.8137  -0.18253342    24676.481    381.02121    1000.8745     200.2066    203.55812   -2.6960914    1.3991542   0.74933697    72.521317   0.12929468 
24764000    4693.4886   -3812.6624    13.363501    8492.7875   -1.9724027     24689.36    381.22007    1000.8745     200.2066    203.55812   -4.0554952   -1.0181248  -0.84358801     73.61746   0.12929468 
24765000    4619.2967   -3789.8572    13.522975    8395.6309   0.21598804    24714.919    381.61473    1000.8745     200.2066    203.55812  -0.50429401   0.54411604   0.60814208    73.395897   0.12929468 
24766000    4853.8735    -3810.882    15.468892    8649.2866  -0.17796942    24618.723    380.12939    1000.8745     200.2066    203.55812   -1.3343688   0.63431717   0.16614339    72.750023   0.12929468 
24767000    4827.7386   -3752.9854    13.974036      8566.75    1.0616133    24461.096    377.69553    1000.8745     200.2066    203.55812    3.5450481   0.95946078   -1.3196689    73.561899   0.12929468 
24768000    4962.5765   -3703.7371    16.425805    8649.8877   0.78963828    24479.554    377.98054    1000.8745     200.2066    203.55812     0.433763     1.420905   0.51424688    74.852423   0.12929468 
24769000    4749.4347   -3723.8405     15.64887    8457.6263   0.81743513    24771.908    382.49468    1000.8745     200.2066    203.55812   0.76182537    1.4967979   0.19368214    73.405627   0.12929468 
24770000    4883.8544   -3622.8926    13.972384    8492.7746   0.68016499    24486.015     378.0803    1000.8745     200.2066    203.55812   0.34850531    2.6834055  -0.99141587    74.803726   0.12929468 
24771000    4981.2586   -3684.1304    21.698309    8643.6907 -0.073147736    24535.423    378.84318    1000.8745     200.2066    203.55812    -0.532514  -0.32141404   0.63448483    74.513649   0.12929468 
24772000    4839.2538   -3722.0234    14.115033    8547.1622   0.82738152    24831.883    383.42072    1000.8745     200.2066    203.55812    1.5844852   0.61036224   0.28729708     74.35166   0.12929468 
24773000    5031.3209   -3602.6522    13.106163     8620.867    2.0581627    24479.217    377.97532    1000.8745     200.2066    203.55812    1.3880947    2.3731733    2.4132199    73.363722   0.12929468 
24774000    4982.5717    -3695.166     16.06001    8661.6777   0.22294451    24694.762    381.30349    1000.8745     200.2066    203.55812  -0.40884065    2.0405852  -0.96291099    73.606135   0.12929468 
24775000    5038.1071   -3670.0748    17.021074    8691.1608    3.0717224    24766.788    382.41562    1000.8745     200.2066    203.55812    7.4318472    1.2317683   0.55155186    74.778219   0.12929468 
24776000    4945.0035   -3607.3775    15.633189    8536.7478   0.12678736     24746.95    382.10931    1000.8745     200.2066    203.55812  -0.41523048   0.46680957   0.32878299    75.331282   0.12929468 
24777000    4861.2142   -3669.3163    17.696183    8512.8343    1.2460362     24721.24    381.71232    1000.8745     200.2066    203.55812    2.4875106    2.0415454  -0.79094744    75.556155   0.12929468 
24778000    4940.1036    -3736.659    13.263566     8663.499   -1.5062413     24393.36    376.64964    1000.8745     200.2066    203.55812    -1.013318   -2.0438721   -1.4615338    76.536673   0.12929468 
24779000    4919.6862   -3703.8889    14.033841    8609.5412  -0.78110708    24592.283    379.72115    1000.8745     200.2066    203.55812   -3.8789325  -0.82541455    2.3610259    75.428951   0.12929468 
24780000    5007.6798   -3677.1153    13.087674    8671.7075    0.5603654    24619.254     380.1376    1000.8745     200.2066    203.55812    2.8159471   0.11630822   -1.2511591    76.911209   0.12929468 
24781000    4757.0667   -3732.1573    11.385364    8477.8386   -3.1613413    24784.036    382.68194    1000.8745     200.2066    203.55812   -7.7855253     1.081386   -2.7798846    78.539831   0.12929468 
24782000    5061.6686   -3638.9214    18.435344    8682.1547  -0.58055092    24743.817    382.06093    1000.8745     200.2066    203.55812   0.48134247  -0.41900129   -1.8039939    76.704528   0.12929468 
24783000    4881.4072   -3669.4502    10.912945    8539.9445   0.57545225    24825.004    383.31451    1000.8745     200.2066    203.55812    1.0066223    0.5694844   0.15025009    76.791144   0.12929468 
24784000     5069.278   -3546.2314    14.934138    8600.5753    1.0276016    24513.748    378.50852    1000.8745     200.2066    203.55812    3.1619947   0.01798595 -0.097175818    76.195979   0.12929468 
24785000    4932.4605   -3707.3348    16.262198    8623.5331    1.2282132    24594.953    379.76237    1000.8745     200.2066    203.55812    1.2873435    1.1755007    1.2217954    76.581343   0.12929468 
24786000    5040.8664   -3702.5641    16.245292    8727.1852  -0.81357111    24810.672    383.09322    1000.8745     200.2066    203.55812   -1.4154488  -0.53857425   -0.4866903    73.794556   0.12929468 
24787000    5019.3409   -3688.7949    16.767207    8691.3686  -0.76946776    24771.714    382.49168    1000.8745     200.2066    203.55812   -1.2656064   0.17850724   -1.2213041    75.535838   0.12929468 
24788000    4825.2237   -3661.8643    21.167588    8465.9203   -0.3331414     24525.82    378.69492    1000.8745     200.2066    203.55812  0.015368074 -0.081223822  -0.93356846    75.137159   0.12929468 
24789000     5047.098   -3636.5802    12.287127     8671.391  -0.38446258    24811.413    383.10466    1000.8745     200.2066    203.55812  -0.20407638   -1.8923889   0.94307758    75.345567   0.12929468 
24790000    5009.4037   -3637.2298    16.506507     8630.127   -1.5640065    24844.621    383.61742    1000.8745     200.2066    203.55812   -3.5223832  0.051221153   -1.2208574    75.853727   0.12929468 
24791000    4984.1166   -3626.7667    13.276493    8597.6068   0.63230489    24309.891    375.36083    1000.8745     200.2066    203.55812    1.9678403   0.53592022   -0.6068459    75.984626   0.12929468 
24792000    4873.1374    -3698.715    18.363587    8553.4888   -1.0993353    24607.968    379.96334    1000.8745     200.2066    203.55812   -1.4034646   -1.5503976  -0.34414375    72.815074   0.12929468 
24793000    4980.5237   -3662.4183    20.493969     8622.448   -0.9606884    24731.978    381.87813    1000.8745     200.2066    203.55812  -0.72176274   -2.1653142  0.005011761    75.660771   0.12929468 
24794000    5258.3421   -3564.0206    20.600756     8801.762   0.25651516    24801.539     382.9522    1000.8745     200.2066    203.55812  -0.56158665   0.39876318   0.93236894    74.794248   0.12929468 
24795000    5036.5307   -3616.5406    15.216066    8637.8552   0.45000789    24726.691    381.79649    1000.8745     200.2066    203.55812   0.28731633  -0.15933657    1.2220439    74.887424   0.12929468 
24796000    5041.6915   -3643.7118    13.833872    8671.5694   -2.4760615    24589.502     379.6782    1000.8745     200.2066    203.55812   -5.3566564  0.047605337   -2.1191335    74.886385   0.12929468 
24797000     5034.369   -3571.8677    13.504192    8592.7325   0.50753802    24823.777    383.29556    1000.8745     200.2066    203.55812   0.38867079    1.2596492  -0.12570587    74.383819   0.12929468 
24798000    4970.6183   -3603.8436    21.259228    8553.2026    4.3820587    24668.981    380.90541    1000.8745     200.2066    203.55812    7.3440027   0.29494907    5.5072243    76.284087   0.12929468 
24799000    4831.8785    -3692.184    16.394225    8507.6683   0.65661491    24376.633    376.39137    1000.8745     200.2066    203.55812    1.8760262    1.1581982   -1.0643797    76.344864   0.12929468 
24800000    5000.4379   -3730.8102     16.86264    8714.3855   -1.8773534    24635.884    380.39438    1000.8745     200.2066    203.55812  -0.43059237   -2.2539103   -2.9475576    76.772267   0.12929468 
24801000    4913.1086   -3613.8995    14.800456    8512.2076   -1.5041426    24390.951    376.61244    1000.8745     200.2066    203.55812    -8.189697    2.5242395    1.1530298    76.955161   0.12929468 
24802000    4781.5085   -3663.8813     14.27025    8431.1196   0.74406518     24771.55    382.48914    1000.8745     200.2066    203.55812   0.38454727    1.4904831   0.35716513    76.324161   0.12929468 
24803000    4903.2744   -3685.1371    20.196086    8568.2154   0.11910801    24591.424    379.70788    1000.8745     200.2066    203.55812   0.65126268 -0.091962305  -0.20197635    75.283359   0.12929468 
24804000     4832.538   -3741.4419     12.50463    8561.4753  -0.57836087    24781.449    382.64199    1000.8745     200.2066    203.55812   -2.4510319   0.44206635   0.27388295    75.037894   0.12929468 
24805000    4860.1084   -3711.9594     16.41101    8555.6568    -1.288578    24585.569    379.61748    1000.8745     200.2066    203.55812   -3.0783624   -1.1697818   0.38241019    74.979392   0.12929468 
24806000    4877.1024   -3649.7166    14.729277    8512.0897   0.36990147    24597.421    379.80048    1000.8745     200.2066    203.55812  -0.21248107   -0.8101408    2.1323263    72.955217   0.12929468 
24807000    4857.0678   -3659.6698    10.960118    8505.7775    1.2108059    24797.971     382.8971    1000.8745     200.2066    203.55812    2.8068248   0.94360072  -0.11800773    74.548629   0.12929468 
24808000     4933.852     -3672.85    15.412858    8591.2891   -3.1567299    24653.865    380.67202    1000.8745     200.2066    203.55812   -9.7230385    1.2547467   -1.0018977    74.257136   0.12929468 
24809000    4836.8912   -3682.7746    16.179268    8503.4865    2.7795111    24597.251    379.79786    1000.8745     200.2066    203.55812    6.4318566    1.3347353   0.57194141    74.748773   0.12929468 
24810000    4706.8479   -3754.6039    11.728896    8449.7229  -0.58899859    24330.863    375.68465    1000.8745     200.2066    203.55812  -0.12352727   -1.0065726  -0.63689593    74.131358   0.12929468 
24811000    4909.9396   -3683.7308    12.427684    8581.2427   -0.5379374    24746.401    382.10083    1000.8745     200.2066    203.55812    -3.058234   0.68526324   0.75915855    74.078618   0.12929468 
24812000    4800.2251   -3764.8994     11.26647    8553.8581   0.27368621    24681.176    381.09371    1000.8745     200.2066    203.55812    2.3269592  -0.33387261    -1.172028    75.720558   0.12929468 
24813000     4957.926   -3692.8166    13.852581    8636.8901  -0.49022543    24471.566     377.8572    1000.8745     200.2066    203.55812    1.1797525 -0.090427257   -2.5600015    75.486762   0.12929468 
24814000    4778.1787   -3650.8006    11.285839    8417.6935  -0.34668061    24759.998    382.31078    1000.8745     200.2066    203.55812  -0.86209991   0.94637557   -1.1243175    75.250196   0.12929468 
24815000    4835.3481   -3693.3004    11.142385     8517.506  -0.18285714    24701.474    381.40713    1000.8745     200.2066    203.55812   -1.8563409 -0.087102303    1.3948718    74.653886   0.12929468 
24816000    4721.3808   -3729.3741    17.219299    8433.5356    1.2378422    24748.651    382.13556    1000.8745     200.2066    203.55812    6.3997399   0.53367689   -3.2198902    73.958413   0.12929468 
24817000    4941.3579   -3684.2667    13.602635     8612.022    -1.106675    24445.842       377.46    1000.8745     200.2066    203.55812   -1.6166785  -0.58134983   -1.1219966    75.403471   0.12929468 
24818000    4938.5866   -3640.6718    15.439822    8563.8187   0.19812284    24730.698    381.85837    1000.8745     200.2066    203.55812   0.12669254    1.0534475  -0.58577153    76.598688   0.12929468 
24819000    4986.3554   -3682.9793    11.821495    8657.5132  -0.37045314    24517.716    378.56978    1000.8745     200.2066    203.55812  0.088186486   -1.7250979   0.52555205    76.481707   0.12929468 
24820000    4822.6072   -3730.5286    19.149057    8533.9868    1.0649457    24583.583    379.58682    1000.8745     200.2066    203.55812     2.049304   0.18753728   0.95799591    76.436558   0.12929468 
24821000     5047.861   -3676.9126    12.957321    8711.8163   0.81910162    24526.916    378.71184    1000.8745     200.2066    203.55812    2.8105479   0.37759687  -0.73083989    76.083519   0.12929468 
24822000    4907.7439   -3676.7799    9.2204093    8575.3034   0.27381928    24571.379    379.39838    1000.8745     200.2066    203.55812    2.8386454   -2.1172173   0.10002976    75.728385   0.12929468 
24823000    4865.8792    -3634.821    18.874804    8481.8254    1.4461937     24594.45    379.75461    1000.8745     200.2066    203.55812    3.5137377    1.6273253  -0.80248191    76.043355   0.12929468 
24824000    4884.0362   -3668.0548    18.698611    8533.3924   -1.6852351    24504.005    378.35807    1000.8745     200.2066    203.55812   -5.3327902 -0.053764079   0.33084896    76.161347   0.12929468 
24825000    4885.2386   -3648.5725    14.165571    8519.6455    1.2860131    24622.631    380.18973    1000.8745     200.2066    203.55812    4.0015709   0.72642299  -0.86995454    74.812047   0.12929468 
24826000    4966.5961   -3614.1625    17.566488    8563.1921    1.6359923    24715.033    381.61649    1000.8745     200.2066    203.55812     2.529645   0.70767856    1.6706532    72.876036   0.12929468 
24827000    4868.6646   -3631.6156    13.786211     8486.494   0.21746724     24588.81    379.66752    1000.8745     200.2066    203.55812    1.5165826   0.80078896   -1.6649698    74.428769   0.12929468 
24828000    5098.2377    -3532.669    12.680478    8618.2263  -0.36077915     24676.29    381.01826    1000.8745     200.2066    203.55812   -1.9645079   0.68700324   0.19516722    73.149737   0.12929468 
24829000    5012.8465   -3662.3462    16.332597    8658.8601  -0.95604851    24826.853    383.34307    1000.8745     200.2066    203.55812   0.81203145   -2.3627927   -1.3173843    72.005444   0.12929468 
24830000    4985.3067   -3643.8307    15.228571    8613.9088   -1.7958702    24468.762     377.8139    1000.8745     200.2066    203.55812   -3.0218423   -2.5114402   0.14567174    73.288326   0.12929468 
24831000    5107.7643    -3608.152    13.123519    8702.7928   -1.4378319      24781.4    382.64123    1000.8745     200.2066    203.55812    -4.312464   0.79009082  -0.79112241    71.729502   0.12929468 
24832000    5309.4185   -3573.3268    11.230531    8871.5148   -1.9142423    24275.806    374.83452    1000.8745     200.2066    203.55812    -1.250871   -2.6018367   -1.8900193     70.50858   0.12929468 
24833000    5068.2085    -3601.521     20.74907    8648.9805   0.46395573      24542.4    378.95092    1000.8745     200.2066    203.55812    2.6473262   -0.7942998  -0.46115916    69.412033   0.12929468 
24834000    4915.4076   -3616.9339     17.30485    8515.0366  -0.38243619    24822.518    383.27613    1000.8745     200.2066    203.55812   -1.1862825  -0.46344657   0.50242047    68.379505   0.12929468 
24835000    5029.7651   -3610.1212    14.840044    8625.0462  -0.29024705    24627.066    380.25821    1000.8745     200.2066    203.55812   -1.5615534  -0.52446127    1.2152735    70.718777   0.12929468 
24836000    5050.1756   -3644.3109    18.990496     8675.496  -0.17228063    24496.893    378.24826    1000.8745     200.2066    203.55812  -0.23163321   -1.0193315   0.73412285    69.787479   0.12929468 
24837000    4891.8506   -3721.7403    15.040261    8598.5506     -1.20749    24754.499    382.22587    1000.8745     200.2066    203.55812    -2.035153  -0.60669452  -0.98062261    69.519042   0.12929468 
24838000    4954.2459   -3685.1498    17.516429    8621.8793   -1.8408334    24548.802    379.04977    1000.8745     200.2066    203.55812   -1.9877291  -0.43560396   -3.0991672    69.107956   0.12929468 
24839000    4722.8043   -3763.0193    17.627124    8468.1965    1.7474616      24613.8    380.05338    1000.8745     200.2066    203.55812    3.9418866   -1.7374102    3.0379083    69.725865   0.12929468 
24840000    4847.6009   -3688.5383    15.724496    8520.4147  -0.95321005     24586.81    379.63664    1000.8745     200.2066    203.55812   -3.8400414   0.91827036  0.062140846    68.953881   0.12929468 
24841000    4986.5637   -3683.9497     19.54333    8650.9701   0.09128435     24854.84     383.7752    1000.8745     200.2066    203.55812   0.95563064    -1.532177   0.85039939    68.842023   0.12929468 
24842000    4901.6864   -3666.5279    22.712783    8545.5015 -0.0011130382    24478.741    377.96799    1000.8745     200.2066    203.55812   -1.9931102   0.72828943    1.2614817     70.75518   0.12929468 
24843000    4832.7226   -3767.1236    19.933241    8579.9131  -0.86234008    24483.184    378.03658    1000.8745     200.2066    203.55812   -2.0356367   0.14412963  -0.69551318    69.810324   0.12929468 
24844000    4841.6416   -3657.2894     21.06491    8477.8661   -1.1327435    24821.527    383.26083    1000.8745     200.2066    203.55812   -4.0700482  -0.35859559    1.0304134    71.336736   0.12929468 
24845000    4960.7997   -3613.5426    11.996716    8562.3456   0.96103114    24719.285    381.68214    1000.8745     200.2066    203.55812   0.77089191    1.2020598   0.91014176    69.881935   0.12929468 
24846000     4849.638   -3654.0001    13.192572    8490.4455    1.0208533    24445.534    377.45524    1000.8745     200.2066    203.55812    1.4799007   0.46385534    1.1188038    71.572928   0.12929468 
24847000     4776.481   -3710.6748    25.653637    8461.5021  -0.53237129    24574.385    379.44479    1000.8745     200.2066    203.55812   -1.6998174  -0.02910028   0.13180375    71.667388   0.12929468 
24848000    5087.6203   -3599.8122    16.491996    8670.9405  -0.64309332    24508.328    378.42483    1000.8745     200.2066    203.55812    2.4597627   -3.4209744  -0.96806836     70.66587   0.12929468 
24849000    4944.8521   -3647.8716    11.995142    8580.7286   0.84329962    24702.536    381.42352    1000.8745     200.2066    203.55812    2.1941902   0.84211913  -0.50641046    71.880386   0.12929468 
24850000    5009.1193   -3624.2655    22.060401    8611.3244    1.1202751    24439.505    377.36215    1000.8745     200.2066    203.55812    1.5892256   0.24781821    1.5237814    70.182437   0.12929468 
24851000    5009.0906   -3635.7839    10.867708    8634.0068  -0.33790911     24542.88    378.95834    1000.8745     200.2066    203.55812   -1.1000332   0.66278026  -0.57647442    71.155897   0.12929468 
24852000    5007.8063   -3654.9833    18.159216    8644.6304  -0.65852326    24712.552    381.57818    1000.8745     200.2066    203.55812   -3.7960118    2.1437785  -0.32333649    69.959702   0.12929468 
24853000    4911.0975   -3677.6711    15.956794    8572.8118  -0.46638026    24435.625    377.30225    1000.8745     200.2066    203.55812   0.38783097   -1.5255762  -0.26139553    69.599342   0.12929468 
24854000    4990.8556    -3671.572    19.622008    8642.8055    2.0026363    24507.442    378.41114    1000.8745     200.2066    203.55812    5.0869955    1.3921549   -0.4712415    70.777164   0.12929468 
24855000    4926.9877   -3673.0204    16.507814    8583.5003   -2.2476748    24493.333    378.19328    1000.8745     200.2066    203.55812   -6.0309197  -0.75695784   0.04485317    72.369791   0.12929468 
24856000    4970.8097   -3593.7584    14.632221    8549.9359    1.2638108    24514.309    378.51717    1000.8745     200.2066    203.55812   0.90074805    1.2988679    1.5918165    72.785782   0.12929468 
24857000    4951.3096   -3605.5907    17.870531    8539.0298  -0.12257612    24603.934    379.90105    1000.8745     200.2066    203.55812  -0.57750641   0.23211412 -0.022336076    71.519861   0.12929468 
24858000     4768.217   -3774.0227    16.721849    8525.5178   0.15006534    24734.793     381.9216    1000.8745     200.2066    203.55812    1.1003988 -0.017334507  -0.63286831    69.324739   0.12929468 
